Siesta Version  : 4.1.5
Architecture    : unknown
Compiler version: GNU Fortran (conda-forge gcc 12.3.0-5) 12.3.0
Compiler flags  : x86_64-conda-linux-gnu-gfortran -march=nocona -mtune=haswell -ftree-vectorizee -fPIC -fstack-protector-strong -fno-plt -O2 -ffunction-sections -pipe  -fallow-argument-mismatch
PP flags        : -DFC_HAVE_ABORT -DCDF -DNCDF -DNCDF_4
Libraries       : libncdf.a libfdict.a -llapack -lblas -lnetcdff -lnetcdf -lhdf5_hl -lhdf5 -lz
SERIAL version
NetCDF support
NetCDF-4 support

* Running in serial mode
>> Start of run:  20-MAR-2024  18:23:47

                           ***********************       
                           *  WELCOME TO SIESTA  *       
                           ***********************       

reinit: Reading from xoc.fdf

reinit: -----------------------------------------------------------------------
reinit: System Name: H2 + O2 -> H2O2 reaction
reinit: -----------------------------------------------------------------------
reinit: System Label: xoc
reinit: -----------------------------------------------------------------------

initatom: Reading input for the pseudopotentials and atomic orbitals ----------
Species number:   1 Atomic number:    8 Label: O
Species number:   2 Atomic number:    1 Label: H

Ground state valence configuration:   2s02  2p04
Reading pseudopotential information in formatted form from O.psf

Pseudopotential generated from a relativistic atomic calculation

Valence configuration for pseudopotential generation:
2s( 2.00) rc: 1.14
2p( 4.00) rc: 1.14
3d( 0.00) rc: 1.14
4f( 0.00) rc: 1.14
Ground state valence configuration:   1s01
Reading pseudopotential information in unformatted form from H.vps

Valence configuration for pseudopotential generation:
1s( 1.00) rc: 1.25
2p( 0.00) rc: 1.25
3d( 0.00) rc: 1.25
4f( 0.00) rc: 1.25
For O, standard SIESTA heuristics set lmxkb to 3
 (one more than the basis l, including polarization orbitals).
Use PS.lmax or PS.KBprojectors blocks to override.
For H, standard SIESTA heuristics set lmxkb to 2
 (one more than the basis l, including polarization orbitals).
Use PS.lmax or PS.KBprojectors blocks to override.

<basis_specs>
===============================================================================
O                    Z=   8    Mass=  16.000        Charge=-0.18518    
Lmxo=2 Lmxkb= 3    BasisType=split      Semic=F
L=0  Nsemic=0  Cnfigmx=2
          i=1  nzeta=2  polorb=0  (2s)
            splnorm:   0.15000    
               vcte:    87.074    
               rinn:    4.7393    
               qcoe:    0.0000    
               qyuk:    0.0000    
               qwid:   0.10000E-01
                rcs:    7.3294      4.6037    
            lambdas:    1.0000      1.0000    
L=1  Nsemic=0  Cnfigmx=2
          i=1  nzeta=2  polorb=0  (2p)
            splnorm:   0.15000    
               vcte:    68.296    
               rinn:    4.9704    
               qcoe:    0.0000    
               qyuk:    0.0000    
               qwid:   0.10000E-01
                rcs:    6.6025      3.0467    
            lambdas:    1.0000      1.0000    
L=2  Nsemic=0  Cnfigmx=3
          i=1  nzeta=1  polorb=0  (3d)
            splnorm:   0.15000    
               vcte:    91.071    
               rinn:    3.9512    
               qcoe:    0.0000    
               qyuk:    0.0000    
               qwid:   0.10000E-01
                rcs:    6.8934    
            lambdas:    1.0000    
-------------------------------------------------------------------------------
L=0  Nkbl=1  erefs: 0.17977+309
L=1  Nkbl=1  erefs: 0.17977+309
L=2  Nkbl=1  erefs: 0.17977+309
L=3  Nkbl=1  erefs: 0.17977+309
===============================================================================
</basis_specs>

atom: Called for O                     (Z =   8)

read_vps: Pseudopotential generation method:
read_vps: ATM3      Troullier-Martins                       
Valence charge for ps generation:    6.00000

read_vps: Pseudopotential includes a core correction:
read_vps: Pseudo-core for xc-correction

xc_check: Exchange-correlation functional:
xc_check: GGA Perdew, Burke & Ernzerhof 1996
V l=0 = -2*Zval/r beyond r=  1.1278
V l=1 = -2*Zval/r beyond r=  1.1278
V l=2 = -2*Zval/r beyond r=  1.1278
V l=3 = -2*Zval/r beyond r=  1.1278
All V_l potentials equal beyond r=  1.1278
This should be close to max(r_c) in ps generation
All pots = -2*Zval/r beyond r=  1.1278

VLOCAL1: 99.0% of the norm of Vloc inside     34.126 Ry
VLOCAL1: 99.9% of the norm of Vloc inside     77.774 Ry
atom: Maximum radius for 4*pi*r*r*local-pseudopot. charge    1.37759
atom: Maximum radius for r*vlocal+2*Zval:    1.18566
GHOST: No ghost state for L =  0
GHOST: No ghost state for L =  1
GHOST: No ghost state for L =  2
GHOST: No ghost state for L =  3

KBgen: Kleinman-Bylander projectors: 
   l= 0   rc=  1.360471   el= -1.759790   Ekb=  9.210761   kbcos=  0.328866
   l= 1   rc=  1.360471   el= -0.663797   Ekb= -7.921990   kbcos= -0.392961
   l= 2   rc=  1.791199   el=  0.002031   Ekb= -1.950550   kbcos= -0.003498
   l= 3   rc=  2.107308   el=  0.003153   Ekb= -0.856060   kbcos= -0.000334

KBgen: Total number of Kleinman-Bylander projectors:   16
atom: -------------------------------------------------------------------------

atom: SANKEY-TYPE ORBITALS:
atom: Selected multiple-zeta basis: split     

atom: basis set generated (by rescaling the valence charge)
atom: for an anion of charge  -0.1852

SPLIT: Orbitals with angular momentum L= 0

SPLIT: Basis orbitals for state 2s

   izeta = 1
                 lambda =    1.000000
                     rc =    7.356000
                 energy =   -1.758588
                kinetic =    1.491851
    potential(screened) =   -3.250439
       potential(ionic) =  -11.062471

   izeta = 2
                 rmatch =    4.690281
              splitnorm =    0.003309
                 energy =   -1.757602
* WARNING: effective split_norm is quite small. Orbitals will be very similar.
                kinetic =    1.574378
    potential(screened) =   -3.331980
       potential(ionic) =  -11.238433

SPLIT: Orbitals with angular momentum L= 1

SPLIT: Basis orbitals for state 2p

   izeta = 1
                 lambda =    1.000000
                     rc =    6.655955
                 energy =   -0.659921
                kinetic =    4.410674
    potential(screened) =   -5.070596
       potential(ionic) =  -12.498772

   izeta = 2
                 rmatch =    3.066256
              splitnorm =    0.127283
                 energy =   -0.537509
                kinetic =    6.271972
    potential(screened) =   -6.809481
       potential(ionic) =  -15.130217

SPLIT: Orbitals with angular momentum L= 2

SPLIT: Basis orbitals for state 3d

   izeta = 1
                 lambda =    1.000000
                     rc =    6.997229
                 energy =    0.764795
                kinetic =    1.136799
    potential(screened) =   -0.372004
       potential(ionic) =   -3.984199
atom: Total number of Sankey-type orbitals: 13

atm_pop: Valence configuration (for local Pseudopot. screening):
 2s( 2.00)                                                            
 2p( 4.00)                                                            
 3d( 0.00)                                                            
Vna: chval, zval:    6.00000   6.00000

Vna:  Cut-off radius for the neutral-atom potential:   7.356000
comcore: Pseudo-core radius Rcore=  1.377587

atom: _________________________________________________________________________

<basis_specs>
===============================================================================
H                    Z=   1    Mass=  1.0100        Charge= 0.22000    
Lmxo=1 Lmxkb= 2    BasisType=split      Semic=F
L=0  Nsemic=0  Cnfigmx=1
          i=1  nzeta=2  polorb=0  (1s)
            splnorm:   0.15000    
               vcte:    2.0700    
               rinn:    0.0000    
               qcoe:    0.0000    
               qyuk:    0.0000    
               qwid:   0.10000E-01
                rcs:    4.9710      1.7710    
            lambdas:    1.0000      1.0000    
L=1  Nsemic=0  Cnfigmx=2
          i=1  nzeta=1  polorb=0  (2p)
            splnorm:   0.15000    
               vcte:   0.89000    
               rinn:   0.10000E-01
               qcoe:    0.0000    
               qyuk:    0.0000    
               qwid:   0.10000E-01
                rcs:    4.9880    
            lambdas:    1.0000    
-------------------------------------------------------------------------------
L=0  Nkbl=1  erefs: 0.17977+309
L=1  Nkbl=1  erefs: 0.17977+309
L=2  Nkbl=1  erefs: 0.17977+309
===============================================================================
</basis_specs>

atom: Called for H                     (Z =   1)

read_vps: Pseudopotential generation method:
read_vps: ATM3      Troullier-Martins                       
Valence charge for ps generation:    1.00000

xc_check: Exchange-correlation functional:
xc_check: GGA Perdew, Burke & Ernzerhof 1996
V l=0 = -2*Zval/r beyond r=  1.2343
V l=1 = -2*Zval/r beyond r=  1.2189
V l=2 = -2*Zval/r beyond r=  1.2189
All V_l potentials equal beyond r=  1.2343
This should be close to max(r_c) in ps generation
All pots = -2*Zval/r beyond r=  1.2343

VLOCAL1: 99.0% of the norm of Vloc inside     28.493 Ry
VLOCAL1: 99.9% of the norm of Vloc inside     64.935 Ry
atom: Maximum radius for 4*pi*r*r*local-pseudopot. charge    1.45251
atom: Maximum radius for r*vlocal+2*Zval:    1.21892
GHOST: No ghost state for L =  0
GHOST: No ghost state for L =  1
GHOST: No ghost state for L =  2

KBgen: Kleinman-Bylander projectors: 
   l= 0   rc=  1.364359   el= -0.477200   Ekb= -2.021939   kbcos= -0.344793
   l= 1   rc=  1.434438   el=  0.001076   Ekb= -0.443447   kbcos= -0.022843
   l= 2   rc=  1.470814   el=  0.002010   Ekb= -0.140543   kbcos= -0.002863

KBgen: Total number of Kleinman-Bylander projectors:    9
atom: -------------------------------------------------------------------------

atom: SANKEY-TYPE ORBITALS:
atom: Selected multiple-zeta basis: split     

atom: basis set generated (by rescaling the valence charge)
atom: for a cation of charge   0.2200

SPLIT: Orbitals with angular momentum L= 0

SPLIT: Basis orbitals for state 1s

   izeta = 1
                 lambda =    1.000000
                     rc =    4.950554
                 energy =   -0.678603
                kinetic =    1.118239
    potential(screened) =   -1.796842
       potential(ionic) =   -2.106311

   izeta = 2
                 rmatch =    1.774652
              splitnorm =    0.672347
                 energy =    1.027037
                kinetic =    4.730146
    potential(screened) =   -3.703109
       potential(ionic) =   -3.968059

SPLIT: Orbitals with angular momentum L= 1

SPLIT: Basis orbitals for state 2p

   izeta = 1
                 lambda =    1.000000
                     rc =    5.075940
                 energy =    0.310352
                kinetic =    0.887169
    potential(screened) =   -0.576817
       potential(ionic) =   -0.872649
atom: Total number of Sankey-type orbitals:  5

atm_pop: Valence configuration (for local Pseudopot. screening):
 1s( 1.00)                                                            
 2p( 0.00)                                                            
Vna: chval, zval:    1.00000   1.00000

Vna:  Cut-off radius for the neutral-atom potential:   4.950554

atom: _________________________________________________________________________

prinput: Basis input ----------------------------------------------------------

PAO.BasisType split     

%block ChemicalSpeciesLabel
    1    8 O                       # Species index, atomic number, species label
    2    1 H                       # Species index, atomic number, species label
%endblock ChemicalSpeciesLabel

%block PAO.Basis                 # Define Basis set
O                     3  -0.185            # Label, l-shells, ionic net charge
 n=2   0   2                         # n, l, Nzeta 
   7.356      4.690   
   1.000      1.000   
 n=2   1   2                         # n, l, Nzeta 
   6.656      3.066   
   1.000      1.000   
 n=3   2   1                         # n, l, Nzeta 
   6.997   
   1.000   
H                     2   0.220            # Label, l-shells, ionic net charge
 n=1   0   2                         # n, l, Nzeta 
   4.951      1.775   
   1.000      1.000   
 n=2   1   1                         # n, l, Nzeta 
   5.076   
   1.000   
%endblock PAO.Basis

prinput: ----------------------------------------------------------------------

Dumping basis to NetCDF file O.ion.nc
Dumping basis to NetCDF file H.ion.nc
coor:   Atomic-coordinates input format  =     Cartesian coordinates
coor:                                          (in Angstroms)

ioxv: Reading coordinates and velocities from file
! Info in XV file prevails over previous structure input
WARNING: xoc.VERLET_RESTART not found--reading only XV file and moving back 1 time step using Euler

siesta: Atomic coordinates (Bohr) and species
siesta:      2.54735  -0.00100  -0.00070  1        1
siesta:      5.01155  -0.00100  -0.00070  1        2
siesta:      9.94052   0.01600   0.01130  2        3
siesta:     11.34566   0.01600   0.01130  2        4

siesta: System type = chain     

initatomlists: Number of atoms, orbitals, and projectors:      4    36    50

coxmol: Writing XMOL coordinates into file xoc.xyz                                                             

siesta: ******************** Simulation parameters ****************************
siesta:
siesta: The following are some of the parameters of the simulation.
siesta: A complete list of the parameters used, including default values,
siesta: can be found in file out.fdf
siesta:
redata: Spin configuration                          = none
redata: Number of spin components                   = 1
redata: Time-Reversal Symmetry                      = T
redata: Spin spiral                                 = F
redata: Long output                                 =   F
redata: Number of Atomic Species                    =        2
redata: Charge density info will appear in .RHO file
redata: Write Mulliken Pop.                         = NO
redata: Matel table size (NRTAB)                    =     1024
redata: Mesh Cutoff                                 =   200.0000 Ry
redata: Net charge of the system                    =     0.0000 |e|
redata: Min. number of SCF Iter                     =        0
redata: Max. number of SCF Iter                     =      150
redata: SCF convergence failure will abort job
redata: SCF mix quantity                            = Hamiltonian
redata: Mix DM or H after convergence               =   F
redata: Recompute H after scf cycle                 =   F
redata: Mix DM in first SCF step                    =   T
redata: Write Pulay info on disk                    =   F
redata: New DM Occupancy tolerance                  = 0.000000000001
redata: No kicks to SCF
redata: DM Mixing Weight for Kicks                  =     0.5000
redata: Require Harris convergence for SCF          =   F
redata: Harris energy tolerance for SCF             =     0.000100 eV
redata: Require DM convergence for SCF              =   T
redata: DM tolerance for SCF                        =     0.000300
redata: Require EDM convergence for SCF             =   F
redata: EDM tolerance for SCF                       =     0.001000 eV
redata: Require H convergence for SCF               =   T
redata: Hamiltonian tolerance for SCF               =     0.001000 eV
redata: Require (free) Energy convergence for SCF   =   F
redata: (free) Energy tolerance for SCF             =     0.000100 eV
redata: Using Saved Data (generic)                  =   F
redata: Use continuation files for DM               =   F
redata: Neglect nonoverlap interactions             =   F
redata: Method of Calculation                       = Diagonalization
redata: Electronic Temperature                      =   290.1109 K
redata: Fix the spin of the system                  =   F
redata: Dynamics option                             = Verlet MD run
redata: Initial MD time step                        =        1
redata:   Final MD time step                        =      200
redata: Length of MD time step                      =     1.0000 fs
redata: Initial Temperature of MD run               =     0.0000 K
redata: Perform a MD quench                         =   F
mix.SCF: Pulay mixing                            = Pulay
mix.SCF:    Variant                              = stable
mix.SCF:    History steps                        = 6
mix.SCF:    Linear mixing weight                 =     0.020000
mix.SCF:    Mixing weight                        =     0.020000
mix.SCF:    SVD condition                        = 0.1000E-07
redata: Save all siesta data in one NC              =   F
redata: ***********************************************************************

%block SCF.Mixers
  Pulay
%endblock SCF.Mixers

%block SCF.Mixer.Pulay
  # Mixing method
  method pulay
  variant stable

  # Mixing options
  weight 0.0200
  weight.linear 0.0200
  history 6
%endblock SCF.Mixer.Pulay

Size of DM history Fstack: 1
Total number of electrons:    14.000000
Total ionic charge:    14.000000
 Kpoints in:            1 . Kpoints trimmed:            1

siesta: k-grid: Number of k-points =     1
siesta: k-grid: Cutoff (effective) =     5.000 Ang
siesta: k-grid: Supercell and displacements
siesta: k-grid:    1   0   0      0.000
siesta: k-grid:    0   1   0      0.000
siesta: k-grid:    0   0   1      0.000

diag: Algorithm                                     = D&C
diag: Used triangular part                          = Lower
diag: Absolute tolerance                            =  0.100E-15
diag: Orthogonalization factor                      =  0.100E-05
diag: Memory factor                                 =  1.0000


ts: **************************************************************
ts: Save H and S matrices                           =    F
ts: Save DM and EDM matrices                        =    F
ts: Only save the overlap matrix S                  =    F
ts: **************************************************************

************************ Begin: TS CHECKS AND WARNINGS ************************
************************ End: TS CHECKS AND WARNINGS **************************


                     ====================================
                        Begin MD step =      1
                     ====================================

outcell: Unit cell vectors (Ang):
       10.000000    0.000000    0.000000
        0.000000   10.000000    0.000000
        0.000000    0.000000   10.000000

outcell: Cell vector modules (Ang)   :   10.000000   10.000000   10.000000
outcell: Cell angles (23,13,12) (deg):     90.0000     90.0000     90.0000
outcell: Cell volume (Ang**3)        :   1000.0000
Gamma-point calculation with multiply-connected orbital pairs
Gamma-point calculation with multiply-connected orbital pairs
Folding of H and S implicitly performed
Folding of H and S implicitly performed
<dSpData1D:S at geom step 1
  <sparsity:sparsity for geom step 1
    nrows_g=36 nrows=36 sparsity=.9784 nnzs=1268, refcount: 7>
  <dData1D:(new from dSpData1D) n=1268, refcount: 1>
refcount: 1>
new_DM -- step:     1
Initializing Density Matrix...
DM filled with atomic data:
<dSpData2D:DM initialized from atoms
  <sparsity:sparsity for geom step 1
    nrows_g=36 nrows=36 sparsity=.9784 nnzs=1268, refcount: 8>
  <dData2D:DM n=1268 m=1, refcount: 1>
refcount: 1>
No. of atoms with KB's overlaping orbs in proc 0. Max # of overlaps:       4      34
New grid distribution:   1
           1       1:   45    1:   45    1:   45

InitMesh: MESH =    90 x    90 x    90 =      729000
InitMesh: (bp) =    45 x    45 x    45 =       91125
InitMesh: Mesh cutoff (required, used) =   200.000   223.865 Ry
ExtMesh (bp) on 0 =   117 x   117 x   117 =     1601613
PhiOnMesh: Number of (b)points on node 0 =                91125
PhiOnMesh: nlist on node 0 =               451182

stepf: Fermi-Dirac step function

siesta: Program's energy decomposition (eV):
siesta: Ebs     =      -191.029644
siesta: Eions   =      1592.294315
siesta: Ena     =       380.186532
siesta: Ekin    =       663.310939
siesta: Enl     =      -100.105863
siesta: Eso     =         0.000000
siesta: Edftu   =         0.000000
siesta: DEna    =       -43.122433
siesta: DUscf   =         3.003119
siesta: DUext   =         0.000000
siesta: Exc     =      -210.917246
siesta: eta*DQ  =         0.000000
siesta: Emadel  =         0.000000
siesta: Emeta   =         0.000000
siesta: Emolmec =         0.000000
siesta: Ekinion =         0.000000
siesta: Eharris =      -900.659063
siesta: Etot    =      -899.939267
siesta: FreeEng =      -900.008581

        iscf     Eharris(eV)        E_KS(eV)     FreeEng(eV)     dDmax    Ef(eV) dHmax(eV)
   scf:    1     -900.659063     -899.939267     -900.008581  5.651879 -9.443650  4.738723
timer: Routine,Calls,Time,% = IterSCF        1       1.631  53.22
   scf:    2     -900.022027     -899.980775     -900.050090  0.068481 -9.353643  4.577178
   scf:    3     -900.993204     -900.615674     -900.684989  2.665522 -6.802629  0.604164
   scf:    4     -900.169558     -900.432303     -900.501618  1.851008 -5.598862  3.058637
   scf:    5     -900.716659     -900.589545     -900.658860  0.889332 -6.284933  1.348552
   scf:    6     -900.644663     -900.619745     -900.689060  0.383134 -6.593748  0.626097
   scf:    7     -900.598018     -900.617287     -900.686602  0.670474 -7.169601  0.676450
   scf:    8     -900.634188     -900.627500     -900.696815  0.289477 -6.898239  0.107082
   scf:    9     -900.627883     -900.627724     -900.697039  0.027395 -6.864342  0.026405
   scf:   10     -900.627746     -900.627739     -900.697054  0.013051 -6.852080  0.004990
   scf:   11     -900.627731     -900.627737     -900.697051  0.002090 -6.849047  0.008648
   scf:   12     -900.627738     -900.627738     -900.697052  0.003321 -6.851853  0.002004
   scf:   13     -900.627740     -900.627739     -900.697054  0.001080 -6.851222  0.000386
   scf:   14     -900.627739     -900.627739     -900.697054  0.000066 -6.851240  0.000375

SCF Convergence by DM+H criterion
max |DM_out - DM_in|         :     0.0000663696
max |H_out - H_in|      (eV) :     0.0003752265
SCF cycle converged after 14 iterations

Using DM_out to compute the final energy and forces
No. of atoms with KB's overlaping orbs in proc 0. Max # of overlaps:       4      34

siesta: E_KS(eV) =             -900.6277

siesta: E_KS - E_eggbox =      -900.6277

siesta: Atomic forces (eV/Ang):
----------------------------------------
   Tot   -0.004693    0.000280    0.000245
----------------------------------------
   Max    0.029882
   Res    0.013611    sqrt( Sum f_i^2 / 3N )
----------------------------------------
   Max    0.029882    constrained

Stress tensor Voigt[x,y,z,yz,xz,xy] (kbar):      -16.46       -0.42       -0.25       -0.10        0.05        0.26
(Free)E + p*V (eV/cell)     -897.1354
Target enthalpy (eV/cell)     -900.6971

siesta: Stress tensor (static) (eV/Ang**3):
        -0.000074    0.000000   -0.000000
         0.000000    0.000006   -0.000000
        -0.000000   -0.000000    0.000006

siesta: Pressure (static):          0.03292148  kBar

siesta: Stress tensor (total) (eV/Ang**3):
        -0.010272    0.000163    0.000029
         0.000163   -0.000259   -0.000060
         0.000029   -0.000060   -0.000154

siesta: Pressure (total):          5.70639628  kBar

siesta: Temp_ion =   13797.487 K

                     ====================================
                        Begin MD step =      2
                     ====================================

outcell: Unit cell vectors (Ang):
       10.000000    0.000000    0.000000
        0.000000   10.000000    0.000000
        0.000000    0.000000   10.000000

outcell: Cell vector modules (Ang)   :   10.000000   10.000000   10.000000
outcell: Cell angles (23,13,12) (deg):     90.0000     90.0000     90.0000
outcell: Cell volume (Ang**3)        :   1000.0000
Gamma-point calculation with multiply-connected orbital pairs
Gamma-point calculation with multiply-connected orbital pairs
Folding of H and S implicitly performed
Folding of H and S implicitly performed
<dSpData1D:S at geom step 2
  <sparsity:sparsity for geom step 2
    nrows_g=36 nrows=36 sparsity=.9830 nnzs=1274, refcount: 7>
  <dData1D:(new from dSpData1D) n=1274, refcount: 1>
refcount: 1>
new_DM -- step:     2
Re-using DM from previous geometries...
Number of DMs in history: 1
 DM extrapolation coefficients: 
1   1.00000
New DM after history re-use:
<dSpData2D:SpM extrapolated using coords
  <sparsity:sparsity for geom step 2
    nrows_g=36 nrows=36 sparsity=.9830 nnzs=1274, refcount: 9>
  <dData2D:(temp array for extrapolation) n=1274 m=1, refcount: 1>
refcount: 1>
Note: For starting DM, Qtot, Tr[D*S] =         14.00000000         14.01997541
No. of atoms with KB's overlaping orbs in proc 0. Max # of overlaps:       4      34
New grid distribution:   1
           1       1:   45    1:   45    1:   45

InitMesh: MESH =    90 x    90 x    90 =      729000
InitMesh: (bp) =    45 x    45 x    45 =       91125
InitMesh: Mesh cutoff (required, used) =   200.000   223.865 Ry
ExtMesh (bp) on 0 =   117 x   117 x   117 =     1601613
PhiOnMesh: Number of (b)points on node 0 =                91125
PhiOnMesh: nlist on node 0 =               451240

        iscf     Eharris(eV)        E_KS(eV)     FreeEng(eV)     dDmax    Ef(eV) dHmax(eV)
   scf:    1     -900.424182     -900.608172     -900.677487  0.190558 -6.933389  0.237833
   scf:    2     -900.607503     -900.608742     -900.678055  0.284438 -6.721589  0.204487
   scf:    3     -900.609983     -900.609530     -900.678845  0.122028 -6.811536  0.035174
   scf:    4     -900.609491     -900.609539     -900.678852  0.009963 -6.806954  0.019679
   scf:    5     -900.609383     -900.609471     -900.678780  0.012167 -6.797299  0.036569
   scf:    6     -900.609525     -900.609531     -900.678846  0.014396 -6.789448  0.042664
   scf:    7     -900.609553     -900.609562     -900.678877  0.032808 -6.816025  0.021918
   scf:    8     -900.609573     -900.609568     -900.678883  0.004269 -6.810972  0.012525
   scf:    9     -900.609573     -900.609571     -900.678886  0.005325 -6.806127  0.000234
   scf:   10     -900.609571     -900.609571     -900.678886  0.000014 -6.806124  0.000230

SCF Convergence by DM+H criterion
max |DM_out - DM_in|         :     0.0000139753
max |H_out - H_in|      (eV) :     0.0002299814
SCF cycle converged after 10 iterations

Using DM_out to compute the final energy and forces
No. of atoms with KB's overlaping orbs in proc 0. Max # of overlaps:       4      34

siesta: E_KS(eV) =             -900.6096

siesta: Atomic forces (eV/Ang):
----------------------------------------
   Tot   -0.029389   -0.000200   -0.000108
----------------------------------------
   Max    0.570963
   Res    0.301438    sqrt( Sum f_i^2 / 3N )
----------------------------------------
   Max    0.570963    constrained

Stress tensor Voigt[x,y,z,yz,xz,xy] (kbar):      -18.46       -0.42       -0.25       -0.10        0.00        0.22
(Free)E + p*V (eV/cell)     -896.6995
Target enthalpy (eV/cell)     -900.6789

siesta: Stress tensor (static) (eV/Ang**3):
        -0.001323   -0.000027   -0.000026
        -0.000027    0.000005   -0.000001
        -0.000026   -0.000001    0.000004

siesta: Pressure (static):          0.70225959  kBar

siesta: Stress tensor (total) (eV/Ang**3):
        -0.011521    0.000137    0.000003
         0.000137   -0.000261   -0.000061
         0.000003   -0.000061   -0.000156

siesta: Pressure (total):          6.37573439  kBar

siesta: Temp_ion =   13763.113 K

                     ====================================
                        Begin MD step =      3
                     ====================================

outcell: Unit cell vectors (Ang):
       10.000000    0.000000    0.000000
        0.000000   10.000000    0.000000
        0.000000    0.000000   10.000000

outcell: Cell vector modules (Ang)   :   10.000000   10.000000   10.000000
outcell: Cell angles (23,13,12) (deg):     90.0000     90.0000     90.0000
outcell: Cell volume (Ang**3)        :   1000.0000
Gamma-point calculation with multiply-connected orbital pairs
Gamma-point calculation with multiply-connected orbital pairs
Folding of H and S implicitly performed
Folding of H and S implicitly performed
<dSpData1D:S at geom step 3
  <sparsity:sparsity for geom step 3
    nrows_g=36 nrows=36 sparsity=.9877 nnzs=1280, refcount: 7>
  <dData1D:(new from dSpData1D) n=1280, refcount: 1>
refcount: 1>
new_DM -- step:     3
Re-using DM from previous geometries...
Number of DMs in history: 1
 DM extrapolation coefficients: 
1   1.00000
New DM after history re-use:
<dSpData2D:SpM extrapolated using coords
  <sparsity:sparsity for geom step 3
    nrows_g=36 nrows=36 sparsity=.9877 nnzs=1280, refcount: 9>
  <dData2D:(temp array for extrapolation) n=1280 m=1, refcount: 1>
refcount: 1>
No. of atoms with KB's overlaping orbs in proc 0. Max # of overlaps:       4      34
New grid distribution:   1
           1       1:   45    1:   45    1:   45

InitMesh: MESH =    90 x    90 x    90 =      729000
InitMesh: (bp) =    45 x    45 x    45 =       91125
InitMesh: Mesh cutoff (required, used) =   200.000   223.865 Ry
ExtMesh (bp) on 0 =   117 x   117 x   117 =     1601613
PhiOnMesh: Number of (b)points on node 0 =                91125
PhiOnMesh: nlist on node 0 =               451229

        iscf     Eharris(eV)        E_KS(eV)     FreeEng(eV)     dDmax    Ef(eV) dHmax(eV)
   scf:    1     -900.301054     -900.571943     -900.641258  1.457493 -6.770492  0.089653
   scf:    2     -900.558487     -900.567979     -900.637266  0.101928 -6.770492  0.258695
   scf:    3     -900.573249     -900.572296     -900.641610  0.077990 -6.770547  0.051786
   scf:    4     -900.572313     -900.572407     -900.641713  0.049468 -6.770644  0.008605
   scf:    5     -900.572517     -900.572499     -900.641813  0.007837 -6.770664  0.004809
   scf:    6     -900.572500     -900.572500     -900.641815  0.001437 -6.770677  0.004550
   scf:    7     -900.572501     -900.572501     -900.641815  0.000898 -6.770954  0.001203
   scf:    8     -900.572501     -900.572501     -900.641815  0.000103 -6.770890  0.001069
   scf:    9     -900.572501     -900.572501     -900.641815  0.000350 -6.771395  0.000066
   scf:   10     -900.572501     -900.572501     -900.641815  0.000010 -6.771397  0.000058

SCF Convergence by DM+H criterion
max |DM_out - DM_in|         :     0.0000096178
max |H_out - H_in|      (eV) :     0.0000577065
SCF cycle converged after 10 iterations

Using DM_out to compute the final energy and forces
No. of atoms with KB's overlaping orbs in proc 0. Max # of overlaps:       4      34

siesta: E_KS(eV) =             -900.5725

siesta: Atomic forces (eV/Ang):
----------------------------------------
   Tot   -0.003311   -0.000422   -0.000155
----------------------------------------
   Max    1.108087
   Res    0.458399    sqrt( Sum f_i^2 / 3N )
----------------------------------------
   Max    1.108087    constrained

Stress tensor Voigt[x,y,z,yz,xz,xy] (kbar):      -19.89       -0.43       -0.26       -0.11       -0.04        0.14
(Free)E + p*V (eV/cell)     -896.3597
Target enthalpy (eV/cell)     -900.6418

siesta: Stress tensor (static) (eV/Ang**3):
        -0.002248   -0.000066   -0.000045
        -0.000066    0.000001   -0.000005
        -0.000045   -0.000005   -0.000002

siesta: Pressure (static):          1.20146640  kBar

siesta: Stress tensor (total) (eV/Ang**3):
        -0.012417    0.000084   -0.000028
         0.000084   -0.000266   -0.000067
        -0.000028   -0.000067   -0.000164

siesta: Pressure (total):          6.86080686  kBar

siesta: Temp_ion =   13675.076 K

                     ====================================
                        Begin MD step =      4
                     ====================================

outcell: Unit cell vectors (Ang):
       10.000000    0.000000    0.000000
        0.000000   10.000000    0.000000
        0.000000    0.000000   10.000000

outcell: Cell vector modules (Ang)   :   10.000000   10.000000   10.000000
outcell: Cell angles (23,13,12) (deg):     90.0000     90.0000     90.0000
outcell: Cell volume (Ang**3)        :   1000.0000
Gamma-point calculation with multiply-connected orbital pairs
Gamma-point calculation with multiply-connected orbital pairs
Folding of H and S implicitly performed
Folding of H and S implicitly performed
<dSpData1D:S at geom step 4
  <sparsity:sparsity for geom step 4
    nrows_g=36 nrows=36 sparsity=.9954 nnzs=1290, refcount: 7>
  <dData1D:(new from dSpData1D) n=1290, refcount: 1>
refcount: 1>
new_DM -- step:     4
Re-using DM from previous geometries...
Number of DMs in history: 1
 DM extrapolation coefficients: 
1   1.00000
New DM after history re-use:
<dSpData2D:SpM extrapolated using coords
  <sparsity:sparsity for geom step 4
    nrows_g=36 nrows=36 sparsity=.9954 nnzs=1290, refcount: 9>
  <dData2D:(temp array for extrapolation) n=1290 m=1, refcount: 1>
refcount: 1>
No. of atoms with KB's overlaping orbs in proc 0. Max # of overlaps:       4      35
New grid distribution:   1
           1       1:   45    1:   45    1:   45

InitMesh: MESH =    90 x    90 x    90 =      729000
InitMesh: (bp) =    45 x    45 x    45 =       91125
InitMesh: Mesh cutoff (required, used) =   200.000   223.865 Ry
ExtMesh (bp) on 0 =   117 x   117 x   117 =     1601613
PhiOnMesh: Number of (b)points on node 0 =                91125
PhiOnMesh: nlist on node 0 =               451302

        iscf     Eharris(eV)        E_KS(eV)     FreeEng(eV)     dDmax    Ef(eV) dHmax(eV)
   scf:    1     -900.192200     -900.504901     -900.574213  1.761977 -6.636560  0.387099
   scf:    2     -900.364307     -900.462325     -900.531363  0.186825 -6.837833  0.989920
   scf:    3     -900.520141     -900.507085     -900.576394  0.138108 -6.691045  0.197104
   scf:    4     -900.506146     -900.507356     -900.576616  0.043511 -6.757775  0.036677
   scf:    5     -900.508129     -900.507893     -900.577202  0.015345 -6.752058  0.043820
   scf:    6     -900.507821     -900.507928     -900.577242  0.009968 -6.760445  0.028681
   scf:    7     -900.507981     -900.507969     -900.577283  0.012444 -6.755041  0.003471
   scf:    8     -900.507969     -900.507969     -900.577283  0.000149 -6.755129  0.002743
   scf:    9     -900.507969     -900.507969     -900.577284  0.001281 -6.756093  0.000259
   scf:   10     -900.507969     -900.507969     -900.577284  0.000024 -6.756095  0.000252

SCF Convergence by DM+H criterion
max |DM_out - DM_in|         :     0.0000237014
max |H_out - H_in|      (eV) :     0.0002523535
SCF cycle converged after 10 iterations

Using DM_out to compute the final energy and forces
No. of atoms with KB's overlaping orbs in proc 0. Max # of overlaps:       4      35

siesta: E_KS(eV) =             -900.5080

siesta: Atomic forces (eV/Ang):
----------------------------------------
   Tot    0.010571   -0.000323    0.001057
----------------------------------------
   Max    1.613501
   Res    0.592956    sqrt( Sum f_i^2 / 3N )
----------------------------------------
   Max    1.613501    constrained

Stress tensor Voigt[x,y,z,yz,xz,xy] (kbar):      -20.89       -0.43       -0.26       -0.10        0.04        0.10
(Free)E + p*V (eV/cell)     -896.0879
Target enthalpy (eV/cell)     -900.5773

siesta: Stress tensor (static) (eV/Ang**3):
        -0.002948   -0.000057    0.000031
        -0.000057    0.000001    0.000001
         0.000031    0.000001    0.000008

siesta: Pressure (static):          1.56964587  kBar

siesta: Stress tensor (total) (eV/Ang**3):
        -0.013040    0.000065    0.000025
         0.000064   -0.000268   -0.000064
         0.000025   -0.000064   -0.000160

siesta: Pressure (total):          7.19278571  kBar

siesta: Temp_ion =   13493.455 K

                     ====================================
                        Begin MD step =      5
                     ====================================

outcell: Unit cell vectors (Ang):
       10.000000    0.000000    0.000000
        0.000000   10.000000    0.000000
        0.000000    0.000000   10.000000

outcell: Cell vector modules (Ang)   :   10.000000   10.000000   10.000000
outcell: Cell angles (23,13,12) (deg):     90.0000     90.0000     90.0000
outcell: Cell volume (Ang**3)        :   1000.0000
Gamma-point calculation with multiply-connected orbital pairs
Gamma-point calculation with multiply-connected orbital pairs
Folding of H and S implicitly performed
Folding of H and S implicitly performed
<dSpData1D:S at geom step 5
  <sparsity:sparsity for geom step 5
    nrows_g=36 nrows=36 sparsity=.9954 nnzs=1290, refcount: 7>
  <dData1D:(new from dSpData1D) n=1290, refcount: 1>
refcount: 1>
new_DM -- step:     5
Re-using DM from previous geometries...
Number of DMs in history: 1
 DM extrapolation coefficients: 
1   1.00000
New DM after history re-use:
<dSpData2D:SpM extrapolated using coords
  <sparsity:sparsity for geom step 5
    nrows_g=36 nrows=36 sparsity=.9954 nnzs=1290, refcount: 9>
  <dData2D:(temp array for extrapolation) n=1290 m=1, refcount: 1>
refcount: 1>
Note: For starting DM, Qtot, Tr[D*S] =         14.00000000         13.97393230
No. of atoms with KB's overlaping orbs in proc 0. Max # of overlaps:       4      35
New grid distribution:   1
           1       1:   45    1:   45    1:   45

InitMesh: MESH =    90 x    90 x    90 =      729000
InitMesh: (bp) =    45 x    45 x    45 =       91125
InitMesh: Mesh cutoff (required, used) =   200.000   223.865 Ry
ExtMesh (bp) on 0 =   117 x   117 x   117 =     1601613
PhiOnMesh: Number of (b)points on node 0 =                91125
PhiOnMesh: nlist on node 0 =               451307

        iscf     Eharris(eV)        E_KS(eV)     FreeEng(eV)     dDmax    Ef(eV) dHmax(eV)
   scf:    1     -900.024484     -900.346131     -900.415419  1.314337 -6.595037  0.684984
   scf:    2     -899.675323     -900.141199     -900.208028  0.384753 -6.898877  2.028987
   scf:    3     -900.405235     -900.355072     -900.424361  0.297312 -6.667197  0.305758
   scf:    4     -900.337365     -900.351264     -900.420033  0.107474 -6.783372  0.079898
   scf:    5     -900.358219     -900.355324     -900.424456  0.029819 -6.762055  0.083735
   scf:    6     -900.357310     -900.357179     -900.426492  0.037017 -6.781166  0.046842
   scf:    7     -900.357050     -900.357160     -900.426464  0.018724 -6.763911  0.020800
   scf:    8     -900.357241     -900.357242     -900.426556  0.007928 -6.770249  0.004621
   scf:    9     -900.357241     -900.357242     -900.426556  0.000885 -6.770813  0.001232
   scf:   10     -900.357242     -900.357242     -900.426556  0.000171 -6.771117  0.000675

SCF Convergence by DM+H criterion
max |DM_out - DM_in|         :     0.0001708451
max |H_out - H_in|      (eV) :     0.0006750238
SCF cycle converged after 10 iterations

Using DM_out to compute the final energy and forces
No. of atoms with KB's overlaping orbs in proc 0. Max # of overlaps:       4      35

siesta: E_KS(eV) =             -900.3572

siesta: Atomic forces (eV/Ang):
----------------------------------------
   Tot    0.115553   -0.000370   -0.000131
----------------------------------------
   Max    2.113555
   Res    0.807313    sqrt( Sum f_i^2 / 3N )
----------------------------------------
   Max    2.113555    constrained

Stress tensor Voigt[x,y,z,yz,xz,xy] (kbar):      -23.10       -0.42       -0.20       -0.06        0.28        0.16
(Free)E + p*V (eV/cell)     -895.4919
Target enthalpy (eV/cell)     -900.4266

siesta: Stress tensor (static) (eV/Ang**3):
        -0.004475    0.000003    0.000190
         0.000003    0.000011    0.000028
         0.000190    0.000028    0.000050

siesta: Pressure (static):          2.35779350  kBar

siesta: Stress tensor (total) (eV/Ang**3):
        -0.014420    0.000099    0.000177
         0.000099   -0.000262   -0.000039
         0.000177   -0.000039   -0.000122

siesta: Pressure (total):          7.90625166  kBar

siesta: Temp_ion =   13052.588 K

                     ====================================
                        Begin MD step =      6
                     ====================================

outcell: Unit cell vectors (Ang):
       10.000000    0.000000    0.000000
        0.000000   10.000000    0.000000
        0.000000    0.000000   10.000000

outcell: Cell vector modules (Ang)   :   10.000000   10.000000   10.000000
outcell: Cell angles (23,13,12) (deg):     90.0000     90.0000     90.0000
outcell: Cell volume (Ang**3)        :   1000.0000
Gamma-point calculation with multiply-connected orbital pairs
Gamma-point calculation with multiply-connected orbital pairs
Folding of H and S implicitly performed
Folding of H and S implicitly performed
<dSpData1D:S at geom step 6
  <sparsity:sparsity for geom step 6
    nrows_g=36 nrows=36 sparsity=.9954 nnzs=1290, refcount: 7>
  <dData1D:(new from dSpData1D) n=1290, refcount: 1>
refcount: 1>
new_DM -- step:     6
Re-using DM from previous geometries...
Number of DMs in history: 1
 DM extrapolation coefficients: 
1   1.00000
New DM after history re-use:
<dSpData2D:SpM extrapolated using coords
  <sparsity:sparsity for geom step 6
    nrows_g=36 nrows=36 sparsity=.9954 nnzs=1290, refcount: 9>
  <dData2D:(temp array for extrapolation) n=1290 m=1, refcount: 1>
refcount: 1>
Note: For starting DM, Qtot, Tr[D*S] =         14.00000000         13.95799049
No. of atoms with KB's overlaping orbs in proc 0. Max # of overlaps:       4      35
New grid distribution:   1
           1       1:   45    1:   45    1:   45

InitMesh: MESH =    90 x    90 x    90 =      729000
InitMesh: (bp) =    45 x    45 x    45 =       91125
InitMesh: Mesh cutoff (required, used) =   200.000   223.865 Ry
ExtMesh (bp) on 0 =   117 x   117 x   117 =     1601613
PhiOnMesh: Number of (b)points on node 0 =                91125
PhiOnMesh: nlist on node 0 =               451237

        iscf     Eharris(eV)        E_KS(eV)     FreeEng(eV)     dDmax    Ef(eV) dHmax(eV)
   scf:    1     -899.593628     -900.027809     -900.096895  0.620905 -6.614915  0.900877
   scf:    2     -898.366740     -899.518445     -899.570390  0.556806 -6.987726  2.930430
   scf:    3     -900.162862     -900.043921     -900.113022  0.432989 -6.702168  0.425758
   scf:    4     -899.753020     -899.961678     -900.022663  0.271743 -6.883231  0.343285
   scf:    5     -900.022637     -899.993963     -900.057961  0.045805 -6.856427  0.240897
   scf:    6     -900.029124     -900.048835     -900.118073  0.210360 -6.835712  0.070152
   scf:    7     -899.975294     -900.021038     -900.087983  0.103395 -6.844918  0.153999
   scf:    8     -899.891031     -900.017629     -900.083811  0.270646 -6.823670  0.138609
   scf:    9     -900.051913     -900.050236     -900.119539  0.135807 -6.816409  0.006113
   scf:   10     -900.050195     -900.050248     -900.119561  0.006126 -6.816619  0.004831
   scf:   11     -900.050234     -900.050255     -900.119563  0.004610 -6.817896  0.003580
   scf:   12     -900.050254     -900.050258     -900.119569  0.001931 -6.818151  0.002964
   scf:   13     -900.050258     -900.050259     -900.119569  0.001565 -6.818338  0.001075
   scf:   14     -900.050258     -900.050259     -900.119570  0.000880 -6.818557  0.000412
   scf:   15     -900.050259     -900.050259     -900.119570  0.000055 -6.818586  0.000379

SCF Convergence by DM+H criterion
max |DM_out - DM_in|         :     0.0000550871
max |H_out - H_in|      (eV) :     0.0003791039
SCF cycle converged after 15 iterations

Using DM_out to compute the final energy and forces
No. of atoms with KB's overlaping orbs in proc 0. Max # of overlaps:       4      35

siesta: E_KS(eV) =             -900.0503

siesta: Atomic forces (eV/Ang):
----------------------------------------
   Tot    0.043135    0.000042    0.000449
----------------------------------------
   Max    2.632063
   Res    1.026160    sqrt( Sum f_i^2 / 3N )
----------------------------------------
   Max    2.632063    constrained

Stress tensor Voigt[x,y,z,yz,xz,xy] (kbar):      -25.96       -0.42       -0.11       -0.01        0.54        0.23
(Free)E + p*V (eV/cell)     -894.6098
Target enthalpy (eV/cell)     -900.1196

siesta: Stress tensor (static) (eV/Ang**3):
        -0.006586    0.000059    0.000322
         0.000059    0.000012    0.000055
         0.000322    0.000055    0.000094

siesta: Pressure (static):          3.46058082  kBar

siesta: Stress tensor (total) (eV/Ang**3):
        -0.016204    0.000143    0.000336
         0.000143   -0.000259   -0.000005
         0.000336   -0.000005   -0.000066

siesta: Pressure (total):          8.82775622  kBar

siesta: Temp_ion =   12194.075 K

                     ====================================
                        Begin MD step =      7
                     ====================================

outcell: Unit cell vectors (Ang):
       10.000000    0.000000    0.000000
        0.000000   10.000000    0.000000
        0.000000    0.000000   10.000000

outcell: Cell vector modules (Ang)   :   10.000000   10.000000   10.000000
outcell: Cell angles (23,13,12) (deg):     90.0000     90.0000     90.0000
outcell: Cell volume (Ang**3)        :   1000.0000
<dSpData1D:S at geom step 7
  <sparsity:sparsity for geom step 7
    nrows_g=36 nrows=36 sparsity=1.0000 nnzs=1296, refcount: 7>
  <dData1D:(new from dSpData1D) n=1296, refcount: 1>
refcount: 1>
new_DM -- step:     7
Re-using DM from previous geometries...
Number of DMs in history: 1
 DM extrapolation coefficients: 
1   1.00000
New DM after history re-use:
<dSpData2D:SpM extrapolated using coords
  <sparsity:sparsity for geom step 7
    nrows_g=36 nrows=36 sparsity=1.0000 nnzs=1296, refcount: 9>
  <dData2D:(temp array for extrapolation) n=1296 m=1, refcount: 1>
refcount: 1>
Note: For starting DM, Qtot, Tr[D*S] =         14.00000000         13.94508189
No. of atoms with KB's overlaping orbs in proc 0. Max # of overlaps:       4      36
New grid distribution:   1
           1       1:   45    1:   45    1:   45

InitMesh: MESH =    90 x    90 x    90 =      729000
InitMesh: (bp) =    45 x    45 x    45 =       91125
InitMesh: Mesh cutoff (required, used) =   200.000   223.865 Ry
ExtMesh (bp) on 0 =   117 x   117 x   117 =     1601613
PhiOnMesh: Number of (b)points on node 0 =                91125
PhiOnMesh: nlist on node 0 =               451251

        iscf     Eharris(eV)        E_KS(eV)     FreeEng(eV)     dDmax    Ef(eV) dHmax(eV)
   scf:    1     -898.709282     -899.459926     -899.527903  0.577675 -6.672811  1.078279
   scf:    2     -896.294632     -898.502625     -898.521474  0.676559 -7.084672  3.759540
   scf:    3     -899.740301     -899.479383     -899.547433  0.491724 -6.767731  0.486730
   scf:    4     -899.470358     -899.474978     -899.542696  0.011640 -6.765105  0.495788
   scf:    5     -898.643609     -899.263828     -899.308043  0.508849 -6.922235  0.396708
   scf:    6     -899.443371     -899.359638     -899.414199  0.087277 -6.895919  0.305818
   scf:    7     -898.672116     -899.329617     -899.384137  0.629317 -6.891895  0.333319
   scf:    8     -899.038871     -899.193798     -899.234501  0.111059 -6.886492  0.448165
   scf:    9     -899.606064     -899.465659     -899.532273  0.288215 -6.895442  0.155196
   scf:   10     -898.512954     -899.088582     -899.116918  0.359177 -6.865255  0.525824
   scf:   11     -899.324217     -899.211683     -899.254282  0.082074 -6.862660  0.436534
   scf:   12     -899.189403     -899.200594     -899.241997  0.008104 -6.863141  0.445051
   scf:   13     -899.396862     -899.304041     -899.356071  0.083284 -6.858354  0.358901
   scf:   14     -899.552793     -899.497141     -899.566161  0.292040 -6.875177  0.062079
   scf:   15     -899.491848     -899.501131     -899.570121  0.091666 -6.875515  0.030956
   scf:   16     -899.485545     -899.498748     -899.567880  0.080114 -6.866544  0.050591
   scf:   17     -899.499499     -899.499128     -899.568284  0.002400 -6.865062  0.048223
   scf:   18     -899.499823     -899.499480     -899.568657  0.002381 -6.865291  0.045799
   scf:   19     -899.503830     -899.502223     -899.571532  0.027149 -6.872575  0.017910
   scf:   20     -899.502936     -899.502753     -899.572047  0.014394 -6.864601  0.024122
   scf:   21     -899.502809     -899.502789     -899.572074  0.003283 -6.875616  0.004356
   scf:   22     -899.502792     -899.502791     -899.572075  0.000468 -6.876327  0.004160
   scf:   23     -899.502785     -899.502788     -899.572074  0.001169 -6.876061  0.001778
   scf:   24     -899.502791     -899.502790     -899.572075  0.000343 -6.876640  0.000896
   scf:   25     -899.502791     -899.502790     -899.572075  0.000207 -6.876623  0.000588

SCF Convergence by DM+H criterion
max |DM_out - DM_in|         :     0.0002074576
max |H_out - H_in|      (eV) :     0.0005884829
SCF cycle converged after 25 iterations

Using DM_out to compute the final energy and forces
No. of atoms with KB's overlaping orbs in proc 0. Max # of overlaps:       4      36

siesta: E_KS(eV) =             -899.5028

siesta: Atomic forces (eV/Ang):
----------------------------------------
   Tot    0.042986   -0.000582    0.000328
----------------------------------------
   Max    3.195841
   Res    1.340655    sqrt( Sum f_i^2 / 3N )
----------------------------------------
   Max    3.195841    constrained

Stress tensor Voigt[x,y,z,yz,xz,xy] (kbar):      -30.58       -0.50       -0.11       -0.02        0.65        0.23
(Free)E + p*V (eV/cell)     -893.0847
Target enthalpy (eV/cell)     -899.5721

siesta: Stress tensor (static) (eV/Ang**3):
        -0.010099    0.000070    0.000346
         0.000070   -0.000042    0.000032
         0.000346    0.000032    0.000067

siesta: Pressure (static):          5.37987112  kBar

siesta: Stress tensor (total) (eV/Ang**3):
        -0.019085    0.000144    0.000403
         0.000144   -0.000310   -0.000012
         0.000403   -0.000011   -0.000067

siesta: Pressure (total):         10.39402886  kBar

siesta: Temp_ion =   10748.021 K

                     ====================================
                        Begin MD step =      8
                     ====================================

outcell: Unit cell vectors (Ang):
       10.000000    0.000000    0.000000
        0.000000   10.000000    0.000000
        0.000000    0.000000   10.000000

outcell: Cell vector modules (Ang)   :   10.000000   10.000000   10.000000
outcell: Cell angles (23,13,12) (deg):     90.0000     90.0000     90.0000
outcell: Cell volume (Ang**3)        :   1000.0000
<dSpData1D:S at geom step 8
  <sparsity:sparsity for geom step 8
    nrows_g=36 nrows=36 sparsity=1.0000 nnzs=1296, refcount: 7>
  <dData1D:(new from dSpData1D) n=1296, refcount: 1>
refcount: 1>
new_DM -- step:     8
Re-using DM from previous geometries...
Number of DMs in history: 1
 DM extrapolation coefficients: 
1   1.00000
New DM after history re-use:
<dSpData2D:SpM extrapolated using coords
  <sparsity:sparsity for geom step 8
    nrows_g=36 nrows=36 sparsity=1.0000 nnzs=1296, refcount: 9>
  <dData2D:(temp array for extrapolation) n=1296 m=1, refcount: 1>
refcount: 1>
Note: For starting DM, Qtot, Tr[D*S] =         14.00000000         13.93509930
No. of atoms with KB's overlaping orbs in proc 0. Max # of overlaps:       4      36
New grid distribution:   1
           1       1:   45    1:   45    1:   45

InitMesh: MESH =    90 x    90 x    90 =      729000
InitMesh: (bp) =    45 x    45 x    45 =       91125
InitMesh: Mesh cutoff (required, used) =   200.000   223.865 Ry
ExtMesh (bp) on 0 =   117 x   117 x   117 =     1601613
PhiOnMesh: Number of (b)points on node 0 =                91125
PhiOnMesh: nlist on node 0 =               451252

        iscf     Eharris(eV)        E_KS(eV)     FreeEng(eV)     dDmax    Ef(eV) dHmax(eV)
   scf:    1     -897.288811     -898.540618     -898.602597  0.569574 -6.727679  1.325819
   scf:    2     -893.485942     -897.086384     -897.087693  0.784526 -7.078689  5.009526
   scf:    3     -899.005365     -898.571293     -898.636223  0.439619 -6.809768  0.437123
   scf:    4     -898.577267     -898.574296     -898.639449  0.004212 -6.810319  0.433514
   scf:    5     -897.133904     -898.247235     -898.264000  0.675361 -6.900780  0.519861
   scf:    6     -898.442078     -898.348298     -898.380388  0.066021 -6.886770  0.436484
   scf:    7     -895.897693     -898.007596     -898.007743  0.997687 -6.831738  0.889934
   scf:    8     -898.039395     -898.024023     -898.026143  0.032423 -6.872656  0.682102
   scf:    9     -898.007368     -898.015762     -898.016508  0.009204 -6.859299  0.723229
   scf:   10     -896.739615     -898.312494     -898.339343  1.010082 -6.881100  0.506136
   scf:   11     -897.256898     -898.380645     -898.428595  0.818752 -6.867483  0.409071
   scf:   12     -898.586175     -898.490594     -898.548568  0.090098 -6.871072  0.314553
   scf:   13     -898.514249     -898.502542     -898.561525  0.010823 -6.869299  0.303303
   scf:   14     -898.387207     -898.447112     -898.501275  0.048285 -6.871470  0.353680
   scf:   15     -898.520725     -898.484893     -898.542395  0.034108 -6.872553  0.318060
   scf:   16     -898.646723     -898.646689     -898.715595  0.294848 -6.871070  0.055419
   scf:   17     -898.630566     -898.641439     -898.710578  0.051218 -6.878929  0.064644
   scf:   18     -898.627841     -898.635314     -898.704261  0.025968 -6.871533  0.096499
   scf:   19     -898.641953     -898.638860     -898.707919  0.016743 -6.878157  0.075785
   scf:   20     -898.649843     -898.646685     -898.715836  0.051903 -6.880593  0.024827
   scf:   21     -898.647419     -898.647132     -898.716213  0.009946 -6.880776  0.028316
   scf:   22     -898.647336     -898.647258     -898.716294  0.005620 -6.883159  0.025590
   scf:   23     -898.647285     -898.647345     -898.716439  0.009903 -6.887774  0.014188
   scf:   24     -898.647338     -898.647342     -898.716439  0.000586 -6.888198  0.012661
   scf:   25     -898.647355     -898.647350     -898.716445  0.000639 -6.889443  0.011755
   scf:   26     -898.647386     -898.647370     -898.716447  0.002601 -6.890240  0.009123
   scf:   27     -898.647380     -898.647376     -898.716445  0.000636 -6.890404  0.008236
   scf:   28     -898.647382     -898.647380     -898.716446  0.001751 -6.891221  0.004958
   scf:   29     -898.647374     -898.647377     -898.716449  0.000447 -6.891565  0.004753
   scf:   30     -898.647326     -898.647356     -898.716454  0.002150 -6.892629  0.003250
   scf:   31     -898.647369     -898.647363     -898.716455  0.001370 -6.893405  0.002374
   scf:   32     -898.647365     -898.647364     -898.716456  0.000087 -6.893495  0.002145
   scf:   33     -898.647370     -898.647367     -898.716456  0.000371 -6.893962  0.000737
   scf:   34     -898.647367     -898.647367     -898.716456  0.000066 -6.893957  0.000776

SCF Convergence by DM+H criterion
max |DM_out - DM_in|         :     0.0000663548
max |H_out - H_in|      (eV) :     0.0007756732
SCF cycle converged after 34 iterations

Using DM_out to compute the final energy and forces
No. of atoms with KB's overlaping orbs in proc 0. Max # of overlaps:       4      36

siesta: E_KS(eV) =             -898.6474

siesta: Atomic forces (eV/Ang):
----------------------------------------
   Tot   -0.033108   -0.001107   -0.000029
----------------------------------------
   Max    3.990422
   Res    2.019268    sqrt( Sum f_i^2 / 3N )
----------------------------------------
   Max    3.990422    constrained

Stress tensor Voigt[x,y,z,yz,xz,xy] (kbar):      -36.22       -0.80       -0.38       -0.22        0.43        0.07
(Free)E + p*V (eV/cell)     -890.9340
Target enthalpy (eV/cell)     -898.7165

siesta: Stress tensor (static) (eV/Ang**3):
        -0.014716    0.000004    0.000186
         0.000004   -0.000227   -0.000108
         0.000186   -0.000108   -0.000128

siesta: Pressure (static):          8.04942001  kBar

siesta: Stress tensor (total) (eV/Ang**3):
        -0.022606    0.000044    0.000271
         0.000044   -0.000502   -0.000138
         0.000271   -0.000138   -0.000238

siesta: Pressure (total):         12.46896606  kBar

siesta: Temp_ion =    8549.678 K

                     ====================================
                        Begin MD step =      9
                     ====================================

outcell: Unit cell vectors (Ang):
       10.000000    0.000000    0.000000
        0.000000   10.000000    0.000000
        0.000000    0.000000   10.000000

outcell: Cell vector modules (Ang)   :   10.000000   10.000000   10.000000
outcell: Cell angles (23,13,12) (deg):     90.0000     90.0000     90.0000
outcell: Cell volume (Ang**3)        :   1000.0000
<dSpData1D:S at geom step 9
  <sparsity:sparsity for geom step 9
    nrows_g=36 nrows=36 sparsity=1.0000 nnzs=1296, refcount: 7>
  <dData1D:(new from dSpData1D) n=1296, refcount: 1>
refcount: 1>
new_DM -- step:     9
Re-using DM from previous geometries...
Number of DMs in history: 1
 DM extrapolation coefficients: 
1   1.00000
New DM after history re-use:
<dSpData2D:SpM extrapolated using coords
  <sparsity:sparsity for geom step 9
    nrows_g=36 nrows=36 sparsity=1.0000 nnzs=1296, refcount: 9>
  <dData2D:(temp array for extrapolation) n=1296 m=1, refcount: 1>
refcount: 1>
Note: For starting DM, Qtot, Tr[D*S] =         14.00000000         13.92108034
No. of atoms with KB's overlaping orbs in proc 0. Max # of overlaps:       4      36
New grid distribution:   1
           1       1:   45    1:   45    1:   45

InitMesh: MESH =    90 x    90 x    90 =      729000
InitMesh: (bp) =    45 x    45 x    45 =       91125
InitMesh: Mesh cutoff (required, used) =   200.000   223.865 Ry
ExtMesh (bp) on 0 =   117 x   117 x   117 =     1601613
PhiOnMesh: Number of (b)points on node 0 =                91125
PhiOnMesh: nlist on node 0 =               451281

        iscf     Eharris(eV)        E_KS(eV)     FreeEng(eV)     dDmax    Ef(eV) dHmax(eV)
   scf:    1     -895.705467     -897.389018     -897.429095  0.549276 -6.680987  1.046263
   scf:    2     -892.889986     -896.280997     -896.281014  0.830167 -6.793872  3.880606
   scf:    3     -897.769002     -897.383317     -897.442119  0.539545 -6.717335  0.875969
   scf:    4     -897.378939     -897.381147     -897.439719  0.002898 -6.718951  0.851718
   scf:    5     -896.693771     -897.425030     -897.465248  0.571134 -6.761901  0.686850
   scf:    6     -897.370433     -897.398198     -897.434527  0.019089 -6.762919  0.736315
   scf:    7     -897.198561     -897.306829     -897.326143  0.102017 -6.824139  0.774804
   scf:    8     -897.292079     -897.299740     -897.318259  0.011764 -6.825617  0.884849
   scf:    9     -897.682943     -897.533753     -897.588632  0.216023 -6.815313  0.490433
   scf:   10     -897.611366     -897.578072     -897.639748  0.064119 -6.808795  0.276302
   scf:   11     -897.599704     -897.589855     -897.653643  0.030266 -6.811993  0.179244
   scf:   12     -897.602060     -897.603092     -897.670927  0.077234 -6.812897  0.012961
   scf:   13     -897.600879     -897.602451     -897.669572  0.023036 -6.812528  0.040822
   scf:   14     -897.600796     -897.602682     -897.670883  0.031315 -6.813431  0.018966
   scf:   15     -897.603259     -897.603070     -897.670978  0.009045 -6.814700  0.011221
   scf:   16     -897.602830     -897.602966     -897.670995  0.003417 -6.815594  0.009494
   scf:   17     -897.603070     -897.603021     -897.670998  0.001480 -6.815784  0.008071
   scf:   18     -897.602985     -897.603004     -897.671003  0.004572 -6.818808  0.001352
   scf:   19     -897.603015     -897.603009     -897.671003  0.000158 -6.818793  0.001359
   scf:   20     -897.603010     -897.603010     -897.671003  0.000226 -6.818713  0.000768

SCF Convergence by DM+H criterion
max |DM_out - DM_in|         :     0.0002261658
max |H_out - H_in|      (eV) :     0.0007680296
SCF cycle converged after 20 iterations

Using DM_out to compute the final energy and forces
No. of atoms with KB's overlaping orbs in proc 0. Max # of overlaps:       4      36

siesta: E_KS(eV) =             -897.6030

siesta: Atomic forces (eV/Ang):
----------------------------------------
   Tot   -0.031444   -0.001900   -0.000161
----------------------------------------
   Max    4.871769
   Res    2.988232    sqrt( Sum f_i^2 / 3N )
----------------------------------------
   Max    4.871769    constrained

Stress tensor Voigt[x,y,z,yz,xz,xy] (kbar):      -40.39       -1.48       -1.02       -0.67        0.12       -0.11
(Free)E + p*V (eV/cell)     -888.7478
Target enthalpy (eV/cell)     -897.6710

siesta: Stress tensor (static) (eV/Ang**3):
        -0.019063   -0.000039   -0.000024
        -0.000039   -0.000603   -0.000377
        -0.000024   -0.000376   -0.000520

siesta: Pressure (static):         10.78104188  kBar

siesta: Stress tensor (total) (eV/Ang**3):
        -0.025207   -0.000069    0.000076
        -0.000069   -0.000923   -0.000417
         0.000076   -0.000417   -0.000640

siesta: Pressure (total):         14.29663757  kBar

siesta: Temp_ion =    5951.705 K

                     ====================================
                        Begin MD step =     10
                     ====================================

outcell: Unit cell vectors (Ang):
       10.000000    0.000000    0.000000
        0.000000   10.000000    0.000000
        0.000000    0.000000   10.000000

outcell: Cell vector modules (Ang)   :   10.000000   10.000000   10.000000
outcell: Cell angles (23,13,12) (deg):     90.0000     90.0000     90.0000
outcell: Cell volume (Ang**3)        :   1000.0000
<dSpData1D:S at geom step 10
  <sparsity:sparsity for geom step 10
    nrows_g=36 nrows=36 sparsity=1.0000 nnzs=1296, refcount: 7>
  <dData1D:(new from dSpData1D) n=1296, refcount: 1>
refcount: 1>
new_DM -- step:    10
Re-using DM from previous geometries...
Number of DMs in history: 1
 DM extrapolation coefficients: 
1   1.00000
New DM after history re-use:
<dSpData2D:SpM extrapolated using coords
  <sparsity:sparsity for geom step 10
    nrows_g=36 nrows=36 sparsity=1.0000 nnzs=1296, refcount: 9>
  <dData2D:(temp array for extrapolation) n=1296 m=1, refcount: 1>
refcount: 1>
Note: For starting DM, Qtot, Tr[D*S] =         14.00000000         13.91216240
No. of atoms with KB's overlaping orbs in proc 0. Max # of overlaps:       4      36
New grid distribution:   1
           1       1:   45    1:   45    1:   45

InitMesh: MESH =    90 x    90 x    90 =      729000
InitMesh: (bp) =    45 x    45 x    45 =       91125
InitMesh: Mesh cutoff (required, used) =   200.000   223.865 Ry
ExtMesh (bp) on 0 =   117 x   117 x   117 =     1601613
PhiOnMesh: Number of (b)points on node 0 =                91125
PhiOnMesh: nlist on node 0 =               451219

        iscf     Eharris(eV)        E_KS(eV)     FreeEng(eV)     dDmax    Ef(eV) dHmax(eV)
   scf:    1     -895.056673     -896.645942     -896.659038  0.570650 -6.460144  1.347564
   scf:    2     -891.128258     -895.278788     -895.278800  1.409180 -6.217626  4.617144
   scf:    3     -897.322971     -896.705481     -896.773436  1.109619 -6.429842  2.202971
   scf:    4     -893.394754     -895.403535     -895.404649  0.567943 -6.314355  4.335992
   scf:    5     -895.376375     -895.390408     -895.390809  0.107523 -6.306313  4.322715
   scf:    6     -895.710327     -895.557995     -895.559784  0.229915 -6.429733  3.555023
   scf:    7     -895.310453     -895.440016     -895.441065  0.155541 -6.333455  4.138059
   scf:    8     -896.155390     -896.003047     -896.012030  0.501459 -6.632127  1.170758
   scf:    9     -895.907885     -896.098322     -896.111466  0.269317 -6.694102  1.644550
   scf:   10     -895.569488     -896.678099     -896.691148  0.960709 -6.481812  1.103770
   scf:   11     -892.062979     -895.523406     -895.524247  0.981394 -6.413287  3.637188
   scf:   12     -896.921265     -896.681882     -896.738243  0.608104 -6.582978  0.405157
   scf:   13     -895.949770     -896.370705     -896.403295  0.187883 -6.642627  1.501366
   scf:   14     -893.274637     -895.528240     -895.539695  0.710157 -6.286795  3.993742
   scf:   15     -896.099588     -895.857459     -895.870506  0.383133 -6.586493  2.307796
   scf:   16     -895.711063     -895.785128     -895.791581  0.025790 -6.577682  2.460662
   scf:   17     -876.487806     -890.599861     -890.600778  2.769375 -6.874189 11.059948
   scf:   18     -898.483396     -896.116039     -896.164513  2.088773 -6.751242  3.440537
   scf:   19     -895.874667     -896.647345     -896.650138  0.691102 -6.471916  1.235377
   scf:   20     -894.327452     -896.017965     -896.049555  0.509312 -6.678570  4.007342
   scf:   21     -894.207510     -896.134275     -896.169193  0.838456 -6.516871  1.957548
   scf:   22     -897.111901     -896.794802     -896.862950  0.375586 -6.592660  0.327006
   scf:   23     -896.613275     -896.838082     -896.884179  0.337592 -6.544724  0.622380
   scf:   24     -892.922550     -895.705816     -895.705850  0.738565 -6.745176  2.445302
   scf:   25     -896.030933     -895.874574     -895.886037  0.083751 -6.659002  2.055112
   scf:   26     -895.714562     -895.795779     -895.800697  0.021453 -6.644244  2.294235
   scf:   27     -895.816179     -895.806008     -895.811809  0.005766 -6.641813  2.267621
   scf:   28     -895.790641     -895.798482     -895.804087  0.013102 -6.644649  2.304014
   scf:   29     -895.823086     -895.810835     -895.817179  0.007037 -6.648268  2.255200
   scf:   30     -895.055694     -896.609046     -896.609162  0.968531 -6.645167  1.194110
   scf:   31     -896.635044     -896.627164     -896.631372  0.070670 -6.635088  1.331023
   scf:   32     -895.493002     -896.601365     -896.661742  0.697334 -6.619491  0.755822
   scf:   33     -896.977821     -896.847903     -896.915468  0.225993 -6.621594  0.179345
   scf:   34     -896.848665     -896.849382     -896.917818  0.034976 -6.625991  0.184094
   scf:   35     -894.505294     -895.967594     -895.989695  0.449468 -6.643901  2.036296
   scf:   36     -897.170455     -896.826285     -896.895515  0.408638 -6.636265  0.308718
   scf:   37     -896.865620     -896.847064     -896.915985  0.029289 -6.626341  0.339246
   scf:   38     -896.049316     -896.526742     -896.586503  0.228622 -6.632739  1.234783
   scf:   39     -896.731099     -896.633619     -896.698085  0.062245 -6.627719  1.026387
   scf:   40     -896.933463     -896.809169     -896.878030  0.146402 -6.618007  0.493188
   scf:   41     -896.898996     -896.862741     -896.931049  0.097765 -6.627404  0.277231
   scf:   42     -896.896990     -896.886706     -896.951632  0.072177 -6.624468  0.085492
   scf:   43     -896.889807     -896.888449     -896.952663  0.034602 -6.621193  0.088633
   scf:   44     -896.887032     -896.887774     -896.952338  0.005639 -6.623370  0.081708
   scf:   45     -896.890267     -896.889797     -896.953283  0.033714 -6.634919  0.088308
   scf:   46     -896.887873     -896.889117     -896.953439  0.013925 -6.637963  0.046972
   scf:   47     -896.890622     -896.889936     -896.953787  0.008628 -6.641505  0.041543
   scf:   48     -896.890483     -896.890287     -896.953851  0.009364 -6.646357  0.036381
   scf:   49     -896.889780     -896.890051     -896.953795  0.005158 -6.648758  0.032109
   scf:   50     -896.889968     -896.890010     -896.953789  0.001481 -6.648917  0.031649
   scf:   51     -896.890217     -896.890119     -896.953853  0.006286 -6.643341  0.030116
   scf:   52     -896.889974     -896.890050     -896.953878  0.002137 -6.642867  0.027177
   scf:   53     -896.889962     -896.890040     -896.953944  0.006192 -6.643395  0.030926
   scf:   54     -896.890219     -896.890131     -896.953962  0.001822 -6.643642  0.030409
   scf:   55     -896.890327     -896.890251     -896.953987  0.018893 -6.650029  0.014620
   scf:   56     -896.890232     -896.890242     -896.953991  0.000571 -6.649550  0.014777
   scf:   57     -896.890310     -896.890278     -896.953981  0.001482 -6.650480  0.015016
   scf:   58     -896.890350     -896.890319     -896.954013  0.003748 -6.648504  0.005727
   scf:   59     -896.890337     -896.890328     -896.954015  0.000238 -6.648585  0.005216
   scf:   60     -896.890288     -896.890309     -896.954019  0.002503 -6.649721  0.005944
   scf:   61     -896.890294     -896.890302     -896.954019  0.000426 -6.649763  0.005957
   scf:   62     -896.890352     -896.890327     -896.954021  0.000875 -6.649777  0.005587
   scf:   63     -896.890429     -896.890379     -896.954024  0.001425 -6.650903  0.003644
   scf:   64     -896.890383     -896.890381     -896.954024  0.000403 -6.650918  0.003104
   scf:   65     -896.890375     -896.890378     -896.954024  0.000879 -6.650462  0.002427
   scf:   66     -896.890386     -896.890382     -896.954025  0.000793 -6.650561  0.002160
   scf:   67     -896.890376     -896.890379     -896.954025  0.000323 -6.650622  0.001869
   scf:   68     -896.890415     -896.890397     -896.954025  0.000903 -6.650628  0.001706
   scf:   69     -896.890407     -896.890402     -896.954025  0.000114 -6.650593  0.001699
   scf:   70     -896.890369     -896.890385     -896.954025  0.000348 -6.650583  0.001035
   scf:   71     -896.890390     -896.890388     -896.954025  0.000536 -6.650421  0.000663
   scf:   72     -896.890393     -896.890390     -896.954025  0.000078 -6.650421  0.000563

SCF Convergence by DM+H criterion
max |DM_out - DM_in|         :     0.0000782102
max |H_out - H_in|      (eV) :     0.0005632974
SCF cycle converged after 72 iterations

Using DM_out to compute the final energy and forces
No. of atoms with KB's overlaping orbs in proc 0. Max # of overlaps:       4      36

siesta: E_KS(eV) =             -896.8904

siesta: Atomic forces (eV/Ang):
----------------------------------------
   Tot    0.024483    0.000109    0.000516
----------------------------------------
   Max    5.527927
   Res    3.576318    sqrt( Sum f_i^2 / 3N )
----------------------------------------
   Max    5.527927    constrained

Stress tensor Voigt[x,y,z,yz,xz,xy] (kbar):      -38.90       -2.46       -1.73       -1.12        0.21       -0.06
(Free)E + p*V (eV/cell)     -887.9886
Target enthalpy (eV/cell)     -896.9540

siesta: Stress tensor (static) (eV/Ang**3):
        -0.020372    0.000067   -0.000012
         0.000066   -0.001071   -0.000584
        -0.000012   -0.000584   -0.000871

siesta: Pressure (static):         11.91706253  kBar

siesta: Stress tensor (total) (eV/Ang**3):
        -0.024278   -0.000039    0.000131
        -0.000039   -0.001536   -0.000702
         0.000131   -0.000702   -0.001082

siesta: Pressure (total):         14.36438138  kBar

siesta: Temp_ion =    4182.616 K

                     ====================================
                        Begin MD step =     11
                     ====================================

outcell: Unit cell vectors (Ang):
       10.000000    0.000000    0.000000
        0.000000   10.000000    0.000000
        0.000000    0.000000   10.000000

outcell: Cell vector modules (Ang)   :   10.000000   10.000000   10.000000
outcell: Cell angles (23,13,12) (deg):     90.0000     90.0000     90.0000
outcell: Cell volume (Ang**3)        :   1000.0000
<dSpData1D:S at geom step 11
  <sparsity:sparsity for geom step 11
    nrows_g=36 nrows=36 sparsity=1.0000 nnzs=1296, refcount: 7>
  <dData1D:(new from dSpData1D) n=1296, refcount: 1>
refcount: 1>
new_DM -- step:    11
Re-using DM from previous geometries...
Number of DMs in history: 1
 DM extrapolation coefficients: 
1   1.00000
New DM after history re-use:
<dSpData2D:SpM extrapolated using coords
  <sparsity:sparsity for geom step 11
    nrows_g=36 nrows=36 sparsity=1.0000 nnzs=1296, refcount: 9>
  <dData2D:(temp array for extrapolation) n=1296 m=1, refcount: 1>
refcount: 1>
Note: For starting DM, Qtot, Tr[D*S] =         14.00000000         13.92184222
No. of atoms with KB's overlaping orbs in proc 0. Max # of overlaps:       4      36
New grid distribution:   1
           1       1:   45    1:   45    1:   45

InitMesh: MESH =    90 x    90 x    90 =      729000
InitMesh: (bp) =    45 x    45 x    45 =       91125
InitMesh: Mesh cutoff (required, used) =   200.000   223.865 Ry
ExtMesh (bp) on 0 =   117 x   117 x   117 =     1601613
PhiOnMesh: Number of (b)points on node 0 =                91125
PhiOnMesh: nlist on node 0 =               451241

        iscf     Eharris(eV)        E_KS(eV)     FreeEng(eV)     dDmax    Ef(eV) dHmax(eV)
   scf:    1     -896.196252     -896.808609     -896.813325  0.864433 -6.177254  1.041733
   scf:    2     -886.546294     -893.696982     -893.697114  1.006622 -6.443771  6.553272
   scf:    3     -896.356960     -896.863447     -896.882215  0.969596 -6.223426  0.565345
   scf:    4     -895.822722     -896.607558     -896.673706  0.446375 -6.312563  2.036211
   scf:    5     -897.002275     -896.887820     -896.942721  0.247061 -6.315694  0.650325
   scf:    6     -896.770957     -896.837900     -896.899643  0.084193 -6.343870  0.777892
   scf:    7     -896.056698     -896.519833     -896.586773  0.253409 -6.430020  1.609741
   scf:    8     -896.761841     -896.649076     -896.716477  0.080012 -6.438030  1.126731
   scf:    9     -896.964948     -896.910839     -896.964133  0.268871 -6.438541  0.071743
   scf:   10     -896.915376     -896.913584     -896.965586  0.020977 -6.441060  0.013671
   scf:   11     -896.914043     -896.913817     -896.965577  0.001787 -6.441180  0.019036
   scf:   12     -896.913882     -896.913855     -896.965622  0.001787 -6.441792  0.012353
   scf:   13     -896.911362     -896.912719     -896.965576  0.011713 -6.443781  0.030474
   scf:   14     -896.914911     -896.914835     -896.964306  0.024962 -6.442966  0.120824
   scf:   15     -896.911327     -896.913664     -896.965680  0.020903 -6.445216  0.009451
   scf:   16     -896.913370     -896.913520     -896.965689  0.002832 -6.445649  0.006768
   scf:   17     -896.913653     -896.913587     -896.965690  0.000822 -6.445742  0.005977
   scf:   18     -896.913715     -896.913651     -896.965689  0.000946 -6.445781  0.004459
   scf:   19     -896.913503     -896.913578     -896.965688  0.002360 -6.445845  0.003528
   scf:   20     -896.913585     -896.913581     -896.965689  0.000396 -6.445883  0.003615
   scf:   21     -896.913565     -896.913574     -896.965692  0.003232 -6.445698  0.000767
   scf:   22     -896.913578     -896.913576     -896.965692  0.000599 -6.445514  0.000430
   scf:   23     -896.913582     -896.913579     -896.965692  0.000096 -6.445490  0.000292

SCF Convergence by DM+H criterion
max |DM_out - DM_in|         :     0.0000955525
max |H_out - H_in|      (eV) :     0.0002922278
SCF cycle converged after 23 iterations

Using DM_out to compute the final energy and forces
No. of atoms with KB's overlaping orbs in proc 0. Max # of overlaps:       4      36

siesta: E_KS(eV) =             -896.9136

siesta: Atomic forces (eV/Ang):
----------------------------------------
   Tot    0.037844    0.001475   -0.000812
----------------------------------------
   Max    6.300648
   Res    3.311225    sqrt( Sum f_i^2 / 3N )
----------------------------------------
   Max    6.300648    constrained

Stress tensor Voigt[x,y,z,yz,xz,xy] (kbar):      -30.66       -3.45       -2.04       -1.18        0.60        0.03
(Free)E + p*V (eV/cell)     -889.4453
Target enthalpy (eV/cell)     -896.9657

siesta: Stress tensor (static) (eV/Ang**3):
        -0.017184    0.000111    0.000123
         0.000111   -0.001336   -0.000426
         0.000123   -0.000426   -0.000821

siesta: Pressure (static):         10.32919090  kBar

siesta: Stress tensor (total) (eV/Ang**3):
        -0.019138    0.000016    0.000377
         0.000016   -0.002153   -0.000736
         0.000377   -0.000735   -0.001271

siesta: Pressure (total):         12.04906709  kBar

siesta: Temp_ion =    4151.227 K

                     ====================================
                        Begin MD step =     12
                     ====================================

outcell: Unit cell vectors (Ang):
       10.000000    0.000000    0.000000
        0.000000   10.000000    0.000000
        0.000000    0.000000   10.000000

outcell: Cell vector modules (Ang)   :   10.000000   10.000000   10.000000
outcell: Cell angles (23,13,12) (deg):     90.0000     90.0000     90.0000
outcell: Cell volume (Ang**3)        :   1000.0000
<dSpData1D:S at geom step 12
  <sparsity:sparsity for geom step 12
    nrows_g=36 nrows=36 sparsity=1.0000 nnzs=1296, refcount: 7>
  <dData1D:(new from dSpData1D) n=1296, refcount: 1>
refcount: 1>
new_DM -- step:    12
Re-using DM from previous geometries...
Number of DMs in history: 1
 DM extrapolation coefficients: 
1   1.00000
New DM after history re-use:
<dSpData2D:SpM extrapolated using coords
  <sparsity:sparsity for geom step 12
    nrows_g=36 nrows=36 sparsity=1.0000 nnzs=1296, refcount: 9>
  <dData2D:(temp array for extrapolation) n=1296 m=1, refcount: 1>
refcount: 1>
Note: For starting DM, Qtot, Tr[D*S] =         14.00000000         13.94794503
No. of atoms with KB's overlaping orbs in proc 0. Max # of overlaps:       4      36
New grid distribution:   1
           1       1:   45    1:   45    1:   45

InitMesh: MESH =    90 x    90 x    90 =      729000
InitMesh: (bp) =    45 x    45 x    45 =       91125
InitMesh: Mesh cutoff (required, used) =   200.000   223.865 Ry
ExtMesh (bp) on 0 =   117 x   117 x   117 =     1601613
PhiOnMesh: Number of (b)points on node 0 =                91125
PhiOnMesh: nlist on node 0 =               451248

        iscf     Eharris(eV)        E_KS(eV)     FreeEng(eV)     dDmax    Ef(eV) dHmax(eV)
   scf:    1     -897.327936     -897.222144     -897.225047  1.408719 -5.989639  2.264342
   scf:    2     -887.398979     -894.265270     -894.266033  1.241072 -6.729110  7.998951
   scf:    3     -897.951720     -897.302622     -897.312090  0.945042 -6.151728  1.148520
   scf:    4     -897.107609     -897.216581     -897.225634  0.104116 -6.184023  1.716447
   scf:    5     -897.341368     -897.285295     -897.298807  0.085106 -6.179212  1.229279
   scf:    6     -897.086583     -897.195037     -897.205502  0.090148 -6.196410  1.778359
   scf:    7     -895.429113     -896.862013     -896.912636  0.645246 -6.231841  2.720114
   scf:    8     -897.424871     -897.328179     -897.370880  0.375596 -6.243022  0.328891
   scf:    9     -895.981104     -896.837601     -896.895609  0.405102 -6.264773  2.720149
   scf:   10     -896.893935     -896.866076     -896.923531  0.015460 -6.267180  2.604152
   scf:   11     -897.025796     -896.947839     -897.004986  0.040793 -6.267579  2.347906
   scf:   12     -896.809490     -896.880350     -896.938021  0.028253 -6.236565  2.676192
   scf:   13     -897.443319     -897.345573     -897.379805  0.413770 -6.244500  0.154088
   scf:   14     -897.351091     -897.349004     -897.381302  0.020563 -6.254596  0.131699
   scf:   15     -897.350274     -897.351688     -897.379188  0.046212 -6.253280  0.261313
   scf:   16     -897.345781     -897.349381     -897.381698  0.020534 -6.251355  0.173808
   scf:   17     -897.336563     -897.344528     -897.381817  0.038067 -6.242131  0.077766
   scf:   18     -897.350443     -897.347716     -897.382784  0.013844 -6.243334  0.050344
   scf:   19     -897.157233     -897.275548     -897.327956  0.120860 -6.230611  0.871693
   scf:   20     -897.372209     -897.351948     -897.382961  0.142949 -6.240125  0.051120
[...]

siesta: E_KS(eV) =             -897.1124

siesta: Atomic forces (eV/Ang):
----------------------------------------
   Tot    0.006247    0.001189    0.008105
----------------------------------------
   Max    2.925332
   Res    1.266905    sqrt( Sum f_i^2 / 3N )
----------------------------------------
   Max    2.925332    constrained

Stress tensor Voigt[x,y,z,yz,xz,xy] (kbar):        1.10        5.53       -2.22        1.26        1.17        2.86
(Free)E + p*V (eV/cell)     -898.0666
Target enthalpy (eV/cell)     -897.1480

siesta: Stress tensor (static) (eV/Ang**3):
         0.001822    0.002028    0.000665
         0.002028    0.004592    0.001839
         0.000665    0.001839   -0.000205

siesta: Pressure (static):         -3.31598558  kBar

siesta: Stress tensor (total) (eV/Ang**3):
         0.000689    0.001782    0.000729
         0.001782    0.003453    0.000787
         0.000729    0.000787   -0.001387

siesta: Pressure (total):         -1.47181745  kBar

siesta: Temp_ion =    5452.177 K

                     ====================================
                        Begin MD step =    113
                     ====================================

outcell: Unit cell vectors (Ang):
       10.000000    0.000000    0.000000
        0.000000   10.000000    0.000000
        0.000000    0.000000   10.000000

outcell: Cell vector modules (Ang)   :   10.000000   10.000000   10.000000
outcell: Cell angles (23,13,12) (deg):     90.0000     90.0000     90.0000
outcell: Cell volume (Ang**3)        :   1000.0000
<dSpData1D:S at geom step 113
  <sparsity:sparsity for geom step 113
    nrows_g=36 nrows=36 sparsity=.9861 nnzs=1278, refcount: 7>
  <dData1D:(new from dSpData1D) n=1278, refcount: 1>
refcount: 1>
new_DM -- step:   113
Re-using DM from previous geometries...
Number of DMs in history: 1
 DM extrapolation coefficients: 
1   1.00000
New DM after history re-use:
<dSpData2D:SpM extrapolated using coords
  <sparsity:sparsity for geom step 113
    nrows_g=36 nrows=36 sparsity=.9861 nnzs=1278, refcount: 9>
  <dData2D:(temp array for extrapolation) n=1278 m=1, refcount: 1>
refcount: 1>
Note: For starting DM, Qtot, Tr[D*S] =         14.00000000         14.03154432
No. of atoms with KB's overlaping orbs in proc 0. Max # of overlaps:       4      35
New grid distribution:   1
           1       1:   45    1:   45    1:   45

InitMesh: MESH =    90 x    90 x    90 =      729000
InitMesh: (bp) =    45 x    45 x    45 =       91125
InitMesh: Mesh cutoff (required, used) =   200.000   223.865 Ry
ExtMesh (bp) on 0 =   117 x   117 x   117 =     1601613
PhiOnMesh: Number of (b)points on node 0 =                91125
PhiOnMesh: nlist on node 0 =               451097

        iscf     Eharris(eV)        E_KS(eV)     FreeEng(eV)     dDmax    Ef(eV) dHmax(eV)
   scf:    1     -869.599500     -887.955455     -887.955774  0.925298 -6.499382 13.708558
   scf:    2     -465.790788     -765.309266     -765.309266 44.443295  1.325742 68.959756
   scf:    3     -949.236356     -882.745604     -882.747961 43.320911 -4.810053 19.071548
   scf:    4     -886.888339     -884.908170     -884.911424  0.462910 -6.018914 17.396659
   scf:    5     -845.828817     -884.803928     -884.803928  2.031708 -6.127357 18.506210
   scf:    6     -888.594464     -886.754674     -886.754674  0.307100 -6.544334 15.104560
   scf:    7     -834.102996     -883.919499     -883.921127  2.010068 -5.415132 18.929885
   scf:    8     -884.779369     -884.361527     -884.362409  0.169205 -5.683596 19.387309
   scf:    9     -855.837202     -887.952935     -887.952935  2.011657 -5.308941 12.938311
   scf:   10     -881.922689     -885.119057     -885.119057  0.580162 -7.133960 19.017516
   scf:   11     -886.629593     -885.884712     -885.884712  0.190035 -6.714344 17.667601
   scf:   12     -895.854305     -891.422867     -891.423139  0.681415 -5.208644 12.153413
   scf:   13     -882.362277     -887.051788     -887.051788  0.627518 -5.552208 14.863428
   scf:   14     -884.013887     -885.582845     -885.582845  0.317014 -6.510408 18.237673
   scf:   15     -819.301510     -879.986291     -879.986493  1.821079 -4.291445 30.769504
   scf:   16     -889.389130     -885.259058     -885.282490  0.974245 -6.632915 20.279911
   scf:   17     -854.551575     -886.787693     -886.787693  1.982586 -5.977216 15.520304
   scf:   18     -889.932174     -888.423553     -888.423553  0.367899 -5.405252 11.703014
   scf:   19     -886.078255     -887.276836     -887.276836  0.263944 -5.563499 14.334803
   scf:   20     -886.541173     -886.912494     -886.912494  0.091373 -5.903150 15.459462
   scf:   21     -887.709659     -887.315260     -887.315260  0.091415 -5.294597 13.971606
   scf:   22     -885.818728     -886.582399     -886.582399  0.233246 -5.816109 15.756450
   scf:   23     -738.477884     -854.689545     -854.689547  2.149634 -1.137616 46.598498
   scf:   24     -900.664446     -879.802769     -879.802871  2.115610 -3.533663 30.709343
   scf:   25     -843.882740     -884.351426     -884.351426  1.832478 -8.677802 23.994571
   scf:   26     -889.626102     -887.145553     -887.145553  0.406168 -5.032849 14.888848
   scf:   27     -886.833644     -886.993944     -886.993944  0.093289 -5.680158 15.414720
   scf:   28     -879.887981     -883.632992     -883.632992  0.530718 -8.395255 22.694979
   scf:   29     -889.652749     -886.848025     -886.848025  0.509606 -6.211151 15.495622
   scf:   30     -884.941881     -885.944629     -885.944629  0.272589 -6.075076 17.595424
   scf:   31     -782.318200     -869.034699     -869.034700  3.726580  0.256391 33.397942
   scf:   32     -895.803679     -884.053557     -884.053975  2.721965 -4.182439 18.012490
   scf:   33     -884.553634     -884.306472     -884.306911  0.059446 -4.310848 17.456526
   scf:   34     -882.180902     -883.259503     -883.259662  0.521966 -3.650261 18.812039
   scf:   35     -886.277494     -884.868345     -884.868549  1.469967 -4.184608 17.214020
   scf:   36     -857.687978     -888.864857     -888.864857  3.261411 -4.726097 13.207140
   scf:   37     -882.330844     -885.835268     -885.835268  0.598759 -5.862430 16.365431
   scf:   38     -825.352012     -881.821716     -881.821787  2.309759 -2.855808 21.524896
   scf:   39     -881.944664     -881.884704     -881.884748  0.267483 -2.749246 21.747359
   scf:   40     -885.852346     -883.944643     -883.945977  0.679639 -4.508736 17.914211
   scf:   41     -884.667363     -884.309147     -884.311407  0.107981 -4.828958 17.165428
   scf:   42     -884.975518     -884.647597     -884.648773  0.542425 -4.720481 17.357892
   scf:   43     -882.443135     -883.564554     -883.564881  0.251282 -4.037896 19.060887
   scf:   44     -843.615881     -884.281299     -884.281299  2.650016 -7.713088 20.130122
   scf:   45     -889.743213     -887.169949     -887.169949  0.481243 -4.986829 14.277298
   scf:   46     -890.438481     -888.863187     -888.863187  0.313142 -5.024459 12.362330
   scf:   47     -839.196916     -884.469329     -884.531728  1.979211 -5.570519 17.012228
   scf:   48     -856.342123     -888.042593     -888.042593  2.006422 -5.070580 12.318017
   scf:   49     -836.771064     -884.301352     -884.301486  2.491311 -4.494039 18.037226
   scf:   50     -883.925904     -884.114006     -884.114069  0.072443 -4.418157 18.258924
   scf:   51     -885.036067     -884.591330     -884.591478  0.161885 -4.695550 17.017624
   scf:   52     -884.782482     -884.687339     -884.687565  0.080754 -4.818736 16.823334
   scf:   53     -885.418841     -885.054632     -885.054998  0.167907 -4.891886 16.543936
   scf:   54     -884.623905     -884.843328     -884.851023  0.047547 -4.760860 17.011129
   scf:   55     -839.299826     -882.648239     -882.648239  2.760211 -9.008425 22.860065
   scf:   56     -890.024945     -886.574145     -886.574145  0.586642 -5.481462 15.528518
   scf:   57     -838.759270     -885.247635     -885.272854  2.624296 -4.680564 16.960920
   scf:   58     -855.153255     -887.660657     -887.660657  2.515500 -4.490035 13.122312
   scf:   59     -885.715663     -886.711017     -886.711017  0.197942 -5.455016 15.384849
   scf:   60     -890.282773     -888.565385     -888.565385  0.326403 -5.290405 11.850144
   scf:   61     -888.840573     -888.702932     -888.702933  0.024475 -5.357805 11.875728
   scf:   62     -888.638863     -888.670903     -888.670903  0.005463 -5.353753 11.856720
   scf:   63     -887.694157     -888.183826     -888.183826  0.087122 -5.357004 12.311438
   scf:   64     -290.850884     -706.570068     -706.599866  8.323331 -0.865584 73.168789
   scf:   65     -853.254446     -888.807651     -888.807651  8.275082 -4.948035 12.508263
   scf:   66     -830.324902     -882.240406     -882.241471  2.029687 -3.417996 20.778875
   scf:   67     -891.643762     -887.194561     -887.215620  0.734565 -5.064223 15.079582
   scf:   68     -882.735384     -885.029462     -885.046712  0.326611 -4.719993 16.811194
   scf:   69     -899.861967     -894.001502     -894.021341  1.153513 -5.284215  9.143043
   scf:   70     -868.532182     -883.259334     -883.264887  1.051697 -3.906137 19.031281
   scf:   71     -886.144314     -884.724412     -884.734970  0.563574 -4.560868 17.208950
   scf:   72     -844.152036     -884.245039     -884.245039  2.897102 -7.635609 20.458328
   scf:   73     -890.339053     -887.487991     -887.487991  0.563255 -4.717792 13.571907
   scf:   74     -891.474734     -896.575814     -896.597653  1.191033 -5.105125  4.776994
   scf:   75     -869.189477     -886.347079     -886.376387  1.339253 -4.961441 15.799060
   scf:   76     -856.347865     -888.086022     -888.086022  2.413047 -5.055487 12.376464
   scf:   77     -886.728267     -887.416834     -887.416834  0.136128 -4.840399 13.841462
   scf:   78     -889.141974     -888.294038     -888.294038  0.156818 -5.284600 12.082477
   scf:   79     -892.117275     -890.248713     -890.248760  0.294139 -5.340701 12.182792
   scf:   80     -887.696051     -888.987318     -888.987318  0.173684 -5.327876 12.066155
   scf:   81     -886.555585     -887.783520     -887.783520  0.199491 -5.333104 13.068362
   scf:   82     -836.196950     -884.281447     -884.287637  2.069505 -4.742463 17.581948
   scf:   83     -901.235784     -895.577277     -895.602228  0.946981 -5.321399  6.842335
   scf:   84     -886.619781     -891.712752     -891.737986  0.644319 -5.264384 11.506455
   scf:   85     -898.697560     -896.150478     -896.171058  0.706439 -5.283554  5.773270
   scf:   86     -896.449132     -896.978232     -896.992444  0.591198 -5.334426  3.375318
   scf:   87     -886.314097     -893.119933     -893.121983  0.578175 -5.459006 10.348837
   scf:   88     -865.050337     -890.029974     -890.046764  1.771371 -5.584062 12.352220
   scf:   89     -877.677193     -893.683350     -893.686724  1.695789 -5.465995  9.813331
   scf:   90     -898.036363     -896.345274     -896.352418  0.317224 -5.539897  5.630060
   scf:   91     -892.451743     -894.639968     -894.643620  0.278437 -5.489130  8.689587
   scf:   92     -894.863264     -894.752249     -894.756382  0.011949 -5.502449  8.514731
   scf:   93     -893.900611     -894.334837     -894.338448  0.042723 -5.479541  9.086082
   scf:   94     -897.278874     -896.119124     -896.121843  0.360095 -5.144414  6.565838
   scf:   95     -854.103120     -884.879550     -884.880837  1.548690 -6.337253 16.708684
   scf:   96     -889.841487     -887.506469     -887.514633  0.427463 -6.262834 14.771860
   scf:   97     -899.095315     -894.320149     -894.348669  0.440265 -6.154763  7.534132
   scf:   98     -888.568093     -891.704962     -891.712227  0.298898 -5.799502 10.668660
   scf:   99     -887.576156     -889.727347     -889.730880  0.767332 -5.297166 12.970040
   scf:  100     -875.224138     -893.204694     -893.212298  2.615228 -6.304188  8.449294
   scf:  101     -889.039946     -895.907106     -895.919564  1.580397 -5.623813  5.611653
   scf:  102     -896.347452     -897.071356     -897.093643  0.811291 -6.091021  1.767626
   scf:  103     -878.711483     -890.295481     -890.295563  0.755536 -5.442643 11.944080
   scf:  104     -896.102044     -893.404493     -893.408333  0.231345 -5.932985  9.079463
   scf:  105     -890.256055     -891.886306     -891.889191  0.162779 -5.636128 10.869096
   scf:  106     -894.906494     -893.459540     -893.463825  0.126666 -5.897745  9.077212
   scf:  107     -893.597149     -893.534426     -893.550574  0.216914 -6.135420  8.583725
   scf:  108     -895.316122     -896.987387     -897.024318  0.834635 -6.223072  1.592304
   scf:  109     -883.319458     -892.943267     -892.947688  0.909250 -6.011324  9.322614
   scf:  110     -895.879432     -897.080037     -897.110923  0.729713 -6.289177  1.169988
   scf:  111     -893.409041     -895.708226     -895.774590  0.542263 -6.207704  5.506815
   scf:  112     -897.628598     -896.948874     -897.000340  0.344684 -6.282296  1.960100
   scf:  113     -896.780061     -897.095854     -897.125437  0.246392 -6.267233  1.166464
   scf:  114     -896.863580     -897.094532     -897.138427  0.151201 -6.294992  1.077063
   scf:  115     -897.173667     -897.146025     -897.184141  0.082426 -6.310705  0.445507
   scf:  116     -896.968249     -897.074998     -897.118726  0.057591 -6.326909  1.368764
   scf:  117     -897.120231     -897.100327     -897.138398  0.123956 -6.304355  1.061794
   scf:  118     -896.587207     -896.884597     -896.933777  0.105377 -6.344127  2.425792
   scf:  119     -896.956642     -896.921368     -896.970269  0.011706 -6.347168  2.247683
   scf:  120     -897.204773     -897.147843     -897.183151  0.135344 -6.348001  0.358277
   scf:  121     -897.157658     -897.155144     -897.186221  0.046553 -6.333891  0.241286
   scf:  122     -897.129056     -897.147842     -897.172953  0.077603 -6.343309  0.633182
   scf:  123     -897.154607     -897.151435     -897.178439  0.013686 -6.348934  0.527481
   scf:  124     -897.145189     -897.155297     -897.187946  0.039820 -6.356605  0.305009
   scf:  125     -896.847014     -897.043719     -897.091756  0.152695 -6.369446  1.621559
   scf:  126     -896.586149     -897.039227     -897.059986  0.217871 -6.304504  1.781808
   scf:  127     -897.151247     -897.100943     -897.128319  0.043328 -6.341185  1.262097
   scf:  128     -896.944975     -897.030062     -897.051576  0.035896 -6.310442  1.821696
   scf:  129     -897.027951     -897.029012     -897.050233  0.005300 -6.314573  1.837492
   scf:  130     -897.188718     -897.150809     -897.186203  0.085651 -6.336335  0.432659
   scf:  131     -897.147318     -897.153536     -897.192785  0.028288 -6.342216  0.169849
   scf:  132     -897.063495     -897.128135     -897.157480  0.075633 -6.329758  0.915471
   scf:  133     -897.094559     -897.112214     -897.139878  0.012542 -6.326938  1.113113
   scf:  134     -897.170946     -897.149622     -897.182281  0.038262 -6.333497  0.515365
   scf:  135     -897.134108     -897.151729     -897.190697  0.050348 -6.331784  0.228996
   scf:  136     -897.139530     -897.146183     -897.187216  0.020448 -6.324506  0.347123
   scf:  137     -897.090551     -897.141256     -897.172305  0.075845 -6.306738  0.670782
   scf:  138     -897.152915     -897.155975     -897.192980  0.039600 -6.310502  0.042950
   scf:  139     -897.156190     -897.156351     -897.192016  0.009958 -6.309930  0.147185
   scf:  140     -897.154613     -897.156034     -897.192981  0.010021 -6.311683  0.052145
   scf:  141     -897.154457     -897.155928     -897.191813  0.010905 -6.311371  0.174960
   scf:  142     -897.153170     -897.155318     -897.193077  0.014294 -6.312443  0.046209
   scf:  143     -897.156407     -897.156061     -897.193204  0.017523 -6.309578  0.090179
   scf:  144     -897.155069     -897.155683     -897.193373  0.004652 -6.310079  0.044169
   scf:  145     -897.154723     -897.155223     -897.193359  0.005856 -6.310009  0.068671
   scf:  146     -897.156112     -897.155693     -897.193415  0.003083 -6.310751  0.041244
   scf:  147     -897.155538     -897.155619     -897.193410  0.004785 -6.313849  0.045813
   scf:  148     -897.154930     -897.155280     -897.193440  0.003984 -6.315018  0.031933
   scf:  149     -897.154979     -897.155131     -897.193442  0.002592 -6.315272  0.033960
   scf:  150     -897.155332     -897.155235     -897.193440  0.003534 -6.315369  0.038206
SCF_NOT_CONV: SCF did not converge in maximum number of steps (required).
SCF_NOT_CONV: SCF did not converge in maximum number of steps (required).
Geom step, scf iteration, dmax:  113   150    0.002808
Geom step, scf iteration, dmax:  113   150    0.002808

timer: Elapsed wall time (sec) =    1381.832
timer: CPU execution times (sec):

Routine            Calls   Time/call    Tot.time        %
siesta                 1    5047.402    5047.402   100.00
Setup                  1       0.090       0.090     0.00
bands                  1       0.000       0.000     0.00
KSV_init               1       0.000       0.000     0.00
IterGeom             113      44.666    5047.308   100.00
state_init           113       0.004       0.424     0.01
hsparse              113       0.000       0.053     0.00
overlap              113       0.002       0.206     0.00
Setup_H0             113       0.476      53.796     1.07
naefs                225       0.000       0.011     0.00
MolMec               225       0.000       0.000     0.00
kinefsm              225       0.001       0.254     0.01
nlefsm               225       0.006       1.249     0.02
DHSCF_Init           113       0.465      52.539     1.04
DHSCF1               113       0.036       4.117     0.08
INITMESH             113       0.000       0.002     0.00
DHSCF2               113       0.429      48.421     0.96
REMESH               113       0.094      10.655     0.21
REORD               8365       0.008      70.927     1.41
PHION                113       0.253      28.574     0.57
COMM_BSC           13701       0.005      74.098     1.47
POISON              3454       0.409    1412.199    27.98
fft                 6908       0.153    1059.014    20.98
IterSCF             3116       1.579    4921.151    97.50
setup_H             3229       1.464    4728.021    93.67
DHSCF               3341       1.436    4798.418    95.07
DHSCF3              3341       1.425    4762.084    94.35
rhoofd              3341       0.653    2182.694    43.24
XC                  3341       0.220     735.753    14.58
GXC-CellXC          3341       0.217     725.702    14.38
cellXC              3341       0.217     725.645    14.38
vmat                3341       0.029      96.028     1.90
compute_dm          3116       0.061     191.291     3.79
diagon              3116       0.061     190.979     3.78
r-eigvec            3116       0.060     186.555     3.70
r-buildHS           3116       0.000       0.019     0.00
rdiag               3116       0.060     186.455     3.69
rdiag1              3116       0.000       0.058     0.00
rdiag2              3116       0.000       0.105     0.00
rdiag3              3116       0.000       0.664     0.01
rdiag4              3116       0.059     185.340     3.67
r-buildD            3116       0.001       3.514     0.07
MIXER               3004       0.000       0.189     0.00
PostSCF              112       0.636      71.235     1.41
DHSCF4               112       0.324      36.290     0.72
dfscf                112       0.263      29.487     0.58
overfsm              112       0.000       0.046     0.00
state_analysis       112       0.001       0.102     0.00
siesta_move          112       0.005       0.529     0.01
  
ABNORMAL_TERMINATION
Stopping Program from Node:    0
ABNORMAL_TERMINATION
Stopping Program from Node:    0

Program aborted. Backtrace:
#0  0x556340680ecb in ???
#1  0x556340384c29 in ???
#2  0x5563402a20d0 in ???
#3  0x7fe0ae9ded8f in ???
#4  0x7fe0ae9dee3f in ???
#5  0x5563402a2174 in ???
